----- GAMESS execution script 'rungms' -----
This job is running on host doreen
under operating system Linux at śro, 15 maj 2013, 17:22:54 KST
Available scratch disk space (Kbyte units) at beginning of the job is
System plików      1K-bl     użyte dostępne %uż. zamont. na
/dev/sda5      242137496 192863340 36974280  84% /home
GAMESS temporary binary files will be written to /home/lmentel/scratch
GAMESS supplementary output files will be written to /home/lmentel/scratch
Copying input file h2_cc-pvtz.inp to your run's scratch directory...
cp h2_cc-pvtz.inp /home/lmentel/scratch/h2_cc-pvtz.F05
unset echo
/home/lmentel/Programs/gamess-may2012/ddikick.x /home/lmentel/Programs/gamess-may2012/gamess.01.x h2_cc-pvtz -ddi 1 1 doreen -scr /home/lmentel/scratch

 Distributed Data Interface kickoff program.
 Initiating 1 compute processes on 1 nodes to run the following command:
 /home/lmentel/Programs/gamess-may2012/gamess.01.x h2_cc-pvtz 

          ******************************************************
          *         GAMESS VERSION =  1 MAY 2012 (R1)          *
          *             FROM IOWA STATE UNIVERSITY             *
          * M.W.SCHMIDT, K.K.BALDRIDGE, J.A.BOATZ, S.T.ELBERT, *
          *   M.S.GORDON, J.H.JENSEN, S.KOSEKI, N.MATSUNAGA,   *
          *          K.A.NGUYEN, S.J.SU, T.L.WINDUS,           *
          *       TOGETHER WITH M.DUPUIS, J.A.MONTGOMERY       *
          *         J.COMPUT.CHEM.  14, 1347-1363(1993)        *
          **************** 64 BIT LINUX VERSION ****************

  SINCE 1993, STUDENTS AND POSTDOCS WORKING AT IOWA STATE UNIVERSITY
  AND ALSO IN THEIR VARIOUS JOBS AFTER LEAVING ISU HAVE MADE IMPORTANT
  CONTRIBUTIONS TO THE CODE:
     IVANA ADAMOVIC, CHRISTINE AIKENS, YURI ALEXEEV, POOJA ARORA,
     ANDREY ASADCHEV, ROB BELL, PRADIPTA BANDYOPADHYAY, JONATHAN BENTZ,
     BRETT BODE, GALINA CHABAN, WEI CHEN, CHEOL HO CHOI, PAUL DAY,
     ALBERT DEFUSCO, TIM DUDLEY, DMITRI FEDOROV, GRAHAM FLETCHER,
     MARK FREITAG, KURT GLAESEMANN, DAN KEMP, GRANT MERRILL,
     NORIYUKI MINEZAWA, JONATHAN MULLIN, TAKESHI NAGATA,
     SEAN NEDD, HEATHER NETZLOFF, BOSILJKA NJEGIC, RYAN OLSON, MIKE PAK,
     JIM SHOEMAKER, LYUDMILA SLIPCHENKO, SAROM SOK, JIE SONG,
     TETSUYA TAKETSUGU, SIMON WEBB, SOOHAENG YOO, FEDERICO ZAHARIEV

  ADDITIONAL CODE HAS BEEN PROVIDED BY COLLABORATORS IN OTHER GROUPS:
     IOWA STATE UNIVERSITY:
          JOE IVANIC, LAIMUTIS BYTAUTAS, KLAUS RUEDENBERG
     UNIVERSITY OF TOKYO: KIMIHIKO HIRAO, TAKAHITO NAKAJIMA,
          TAKAO TSUNEDA, MUNEAKI KAMIYA, SUSUMU YANAGISAWA,
          KIYOSHI YAGI, MAHITO CHIBA, SEIKEN TOKURA, NAOAKI KAWAKAMI
     UNIVERSITY OF AARHUS: FRANK JENSEN
     UNIVERSITY OF IOWA: VISVALDAS KAIRYS, HUI LI
     NATIONAL INST. OF STANDARDS AND TECHNOLOGY: WALT STEVENS, DAVID GARMER
     UNIVERSITY OF PISA: BENEDETTA MENNUCCI, JACOPO TOMASI
     UNIVERSITY OF MEMPHIS: HENRY KURTZ, PRAKASHAN KORAMBATH
     UNIVERSITY OF ALBERTA: TOBY ZENG, MARIUSZ KLOBUKOWSKI
     UNIVERSITY OF NEW ENGLAND: MARK SPACKMAN
     MIE UNIVERSITY: HIROAKI UMEDA
     MICHIGAN STATE UNIVERSITY:
          KAROL KOWALSKI, MARTA WLOCH, JEFFREY GOUR, JESSE LUTZ, PIOTR PIECUCH
     UNIVERSITY OF SILESIA: MONIKA MUSIAL, STANISLAW KUCHARSKI
     FACULTES UNIVERSITAIRES NOTRE-DAME DE LA PAIX:
          OLIVIER QUINET, BENOIT CHAMPAGNE
     UNIVERSITY OF CALIFORNIA - SANTA BARBARA: BERNARD KIRTMAN
     INSTITUTE FOR MOLECULAR SCIENCE:
          KAZUYA ISHIMURA, MICHIO KATOUDA, AND SHIGERU NAGASE
     UNIVERSITY OF NOTRE DAME: DAN CHIPMAN
     KYUSHU UNIVERSITY:
          HARUYUKI NAKANO,
          FENG LONG GU, JACEK KORCHOWIEC, MARCIN MAKOWSKI, AND YURIKO AOKI,
          HIROTOSHI MORI AND EISAKU MIYOSHI
     PENNSYLVANIA STATE UNIVERSITY:
          TZVETELIN IORDANOV, CHET SWALINA, JONATHAN SKONE,
          SHARON HAMMES-SCHIFFER
     WASEDA UNIVERSITY:
          MASATO KOBAYASHI, TOMOKO AKAMA, TSUGUKI TOUMA,
          TAKESHI YOSHIKAWA, YASUHIRO IKABATA, HIROMI NAKAI
     UNIVERSITY OF NEBRASKA:
          PEIFENG SU, DEJUN SI, NANDUN THELLAMUREGE, YALI WANG, HUI LI
     UNIVERSITY OF ZURICH:
          ROBERTO PEVERATI, KIM BALDRIDGE
     N. COPERNICUS UNIVERSITY AND JACKSON STATE UNIVERSITY:
          MARIA BARYSZ

 EXECUTION OF GAMESS BEGUN Wed May 15 17:22:54 2013

            ECHO OF THE FIRST FEW INPUT CARDS -
 INPUT CARD> $CONTRL                                                                        
 INPUT CARD>    SCFTYP=RHF                                                                  
 INPUT CARD>    RUNTYP=ENERGY                                                               
 INPUT CARD>    cityp=guga                                                                  
 INPUT CARD>    UNITS=BOHR                                                                  
 INPUT CARD>    ISPHER=-1                                                                   
 INPUT CARD>    nprint=3                                                                    
 INPUT CARD> $END                                                                           
 INPUT CARD> $SYSTEM                                                                        
 INPUT CARD>    TIMLIM=1000000                                                              
 INPUT CARD>    mwords=100                                                                  
 INPUT CARD> $END                                                                           
 INPUT CARD> $SCF dirscf=.false. $END                                                       
 INPUT CARD> $CIDRT                                                                         
 INPUT CARD>    iexcit=2                                                                    
 INPUT CARD>    ndoc=1                                                                      
 INPUT CARD>    nval=29                                                                     
 INPUT CARD>    group=d2h                                                                   
 INPUT CARD> $END                                                                           
 INPUT CARD> $CIINP                                                                         
 INPUT CARD>    npflg(2)=2                                                                  
 INPUT CARD> $END                                                                           
 INPUT CARD> $GUGDM                                                                         
 INPUT CARD>    nflgdm=1                                                                    
 INPUT CARD> $END                                                                           
 INPUT CARD> $DATA                                                                          
 INPUT CARD>Hydrogen molecule at equlibium in cc-pVTZ basis                                 
 INPUT CARD>dnh      2                                                                      
 INPUT CARD>                                                                                
 INPUT CARD>H     1.0      0.000000    0.000000   0.724368                                  
 INPUT CARD>S   3                                                                           
 INPUT CARD>  1     33.8700000              0.0060680                                       
 INPUT CARD>  2      5.0950000              0.0453080                                       
 INPUT CARD>  3      1.1590000              0.2028220                                       
 INPUT CARD>S   1                                                                           
 INPUT CARD>  1      0.3258000              1.0000000                                       
 INPUT CARD>S   1                                                                           
 INPUT CARD>  1      0.1027000              1.0000000                                       
 INPUT CARD>P   1                                                                           
 INPUT CARD>  1      1.4070000              1.0000000                                       
 INPUT CARD>P   1                                                                           
 INPUT CARD>  1      0.3880000              1.0000000                                       
 INPUT CARD>D   1                                                                           
 INPUT CARD>  1      1.0570000              1.0000000                                       
 INPUT CARD>                                                                                
 INPUT CARD> $END                                                                           
  100000000 WORDS OF MEMORY AVAILABLE


     RUN TITLE
     ---------
 Hydrogen molecule at equlibium in cc-pVTZ basis                                 

 THE POINT GROUP OF THE MOLECULE IS DNH     
 THE ORDER OF THE PRINCIPAL AXIS IS     2
 *** WARNING! ATOM   1 SHELL    1 TYPE S HAS NORMALIZATION   4.20152657

 ATOM      ATOMIC                      COORDINATES (BOHR)
           CHARGE         X                   Y                   Z
 H           1.0     0.0000000000        0.0000000000       -0.7243680000
 H           1.0     0.0000000000        0.0000000000        0.7243680000

          INTERNUCLEAR DISTANCES (ANGS.)
          ------------------------------

                1 H          2 H     

   1 H       0.0000000    0.7666381 *
   2 H       0.7666381 *  0.0000000  

  * ... LESS THAN  3.000


     ATOMIC BASIS SET
     ----------------
 THE CONTRACTED PRIMITIVE FUNCTIONS HAVE BEEN UNNORMALIZED
 THE CONTRACTED BASIS FUNCTIONS ARE NOW NORMALIZED TO UNITY

  SHELL TYPE  PRIMITIVE        EXPONENT          CONTRACTION COEFFICIENT(S)

 H         

      7   S       1            33.8700000    0.025494863235
      7   S       2             5.0950000    0.190362765893
      7   S       3             1.1590000    0.852162022245

      8   S       4             0.3258000    1.000000000000

      9   S       5             0.1027000    1.000000000000

     10   P       6             1.4070000    1.000000000000

     11   P       7             0.3880000    1.000000000000

     12   D       8             1.0570000    1.000000000000

 TOTAL NUMBER OF BASIS SET SHELLS             =   12
 NUMBER OF CARTESIAN GAUSSIAN BASIS FUNCTIONS =   30
 NUMBER OF ELECTRONS                          =    2
 CHARGE OF MOLECULE                           =    0
 SPIN MULTIPLICITY                            =    1
 NUMBER OF OCCUPIED ORBITALS (ALPHA)          =    1
 NUMBER OF OCCUPIED ORBITALS (BETA )          =    1
 TOTAL NUMBER OF ATOMS                        =    2
 THE NUCLEAR REPULSION ENERGY IS        0.6902568860

 THIS MOLECULE IS RECOGNIZED AS BEING LINEAR,
 ORBITAL LZ DEGENERACY TOLERANCE ETOLLZ= 1.00E-06

     $CONTRL OPTIONS
     ---------------
 SCFTYP=RHF          RUNTYP=ENERGY       EXETYP=RUN     
 MPLEVL=       0     CITYP =GUGA         CCTYP =NONE         VBTYP =NONE    
 DFTTYP=NONE         TDDFT =NONE    
 MULT  =       1     ICHARG=       0     NZVAR =       0     COORD =UNIQUE  
 PP    =NONE         RELWFN=NONE         LOCAL =NONE         NUMGRD=       F
 ISPHER=      -1     NOSYM =       0     MAXIT =      30     UNITS =BOHR    
 PLTORB=       F     MOLPLT=       F     AIMPAC=       F     FRIEND=        
 NPRINT=       3     IREST =       0     GEOM  =INPUT   
 NORMF =       0     NORMP =       0     ITOL  =      20     ICUT  =       9
 INTTYP=BEST         GRDTYP=BEST         QMTTOL= 1.0E-06

     $SYSTEM OPTIONS
     ---------------
  REPLICATED MEMORY=   100000000 WORDS (ON EVERY NODE).
 DISTRIBUTED MEMDDI=           0 MILLION WORDS IN AGGREGATE,
 MEMDDI DISTRIBUTED OVER   1 PROCESSORS IS           0 WORDS/PROCESSOR.
 TOTAL MEMORY REQUESTED ON EACH PROCESSOR=   100000000 WORDS.
 TIMLIM=     1000000.00 MINUTES, OR     694.4 DAYS.
 PARALL= F  BALTYP=  DLB     KDIAG=    0  COREFL= F
 MXSEQ2=     300 MXSEQ3=     150

          ----------------
          PROPERTIES INPUT
          ----------------

     MOMENTS            FIELD           POTENTIAL          DENSITY
 IEMOM =       1   IEFLD =       0   IEPOT =       0   IEDEN =       0
 WHERE =COMASS     WHERE =NUCLEI     WHERE =NUCLEI     WHERE =NUCLEI  
 OUTPUT=BOTH       OUTPUT=BOTH       OUTPUT=BOTH       OUTPUT=BOTH    
 IEMINT=       0   IEFINT=       0                     IEDINT=       0
                                                       MORB  =       0
          EXTRAPOLATION IN EFFECT
          SOSCF IN EFFECT
 ORBITAL PRINTING OPTION: NPREO=     1    30     2     1

     -------------------------------
     INTEGRAL TRANSFORMATION OPTIONS
     -------------------------------
     NWORD  =            0
     CUTOFF = 1.0E-09     MPTRAN =       0
     DIRTRF =       F     AOINTS =DUP     

          ----------------------
          INTEGRAL INPUT OPTIONS
          ----------------------
 NOPK  =       1 NORDER=       0 SCHWRZ=       F

     ------------------------------------------
     THE POINT GROUP IS DNH, NAXIS= 2, ORDER= 8
     ------------------------------------------

     DIMENSIONS OF THE SYMMETRY SUBSPACES ARE
 AG  =    8     AU  =    1     B3U =    3     B3G =    3     B1G =    1
 B1U =    8     B2U =    3     B2G =    3

 ..... DONE SETTING UP THE RUN .....
 STEP CPU TIME =     0.01 TOTAL CPU TIME =        0.0 (    0.0 MIN)
 TOTAL WALL CLOCK TIME=        0.4 SECONDS, CPU UTILIZATION IS   2.33%

          ********************
          1 ELECTRON INTEGRALS
          ********************
 OVERLAP MATRIX

                      1          2          3          4          5

    1  H  1  S    1.000000
    2  H  1  S    0.706285   1.000000
    3  H  1  S    0.373528   0.788878   1.000000
    4  H  1  X    0.000000   0.000000   0.000000   1.000000
    5  H  1  Y    0.000000   0.000000   0.000000   0.000000   1.000000
    6  H  1  Z    0.000000   0.000000   0.000000   0.000000   0.000000
    7  H  1  X    0.000000   0.000000   0.000000   0.614924   0.000000
    8  H  1  Y    0.000000   0.000000   0.000000   0.000000   0.614924
    9  H  1  Z   -0.000000   0.000000  -0.000000   0.000000   0.000000
   10  H  1 XX    0.493531   0.690177   0.450774   0.000000   0.000000
   11  H  1 YY    0.493531   0.690177   0.450774   0.000000   0.000000
   12  H  1 ZZ    0.493531   0.690177   0.450774   0.000000   0.000000
   13  H  1 XY    0.000000   0.000000   0.000000   0.000000   0.000000
   14  H  1 XZ    0.000000   0.000000   0.000000   0.000000   0.000000
   15  H  1 YZ    0.000000   0.000000   0.000000   0.000000   0.000000
   16  H  2  S    0.246882   0.410216   0.306114   0.000000   0.000000
   17  H  2  S    0.410216   0.710419   0.669628   0.000000   0.000000
   18  H  2  S    0.306114   0.669628   0.897829   0.000000   0.000000
   19  H  2  X    0.000000   0.000000   0.000000   0.228429   0.000000
   20  H  2  Y    0.000000   0.000000   0.000000   0.000000   0.228429
   21  H  2  Z   -0.385177  -0.256207  -0.068345   0.000000   0.000000
   22  H  2  X    0.000000   0.000000   0.000000   0.324789   0.000000
   23  H  2  Y    0.000000   0.000000   0.000000   0.000000   0.324789
   24  H  2  Z   -0.562336  -0.564810  -0.233772   0.000000   0.000000
   25  H  2 XX    0.150820   0.409222   0.370371   0.000000   0.000000
   26  H  2 YY    0.150820   0.409222   0.370371   0.000000   0.000000
   27  H  2 ZZ    0.597175   0.541081   0.384511   0.000000   0.000000
   28  H  2 XY    0.000000   0.000000   0.000000   0.000000   0.000000
   29  H  2 XZ    0.000000   0.000000   0.000000  -0.467178   0.000000
   30  H  2 YZ    0.000000   0.000000   0.000000   0.000000  -0.467178

                      6          7          8          9         10

    6  H  1  Z    1.000000
    7  H  1  X    0.000000   1.000000
    8  H  1  Y    0.000000   0.000000   1.000000
    9  H  1  Z    0.614924   0.000000   0.000000   1.000000
   10  H  1 XX    0.000000   0.000000   0.000000   0.000000   1.000000
   11  H  1 YY    0.000000   0.000000   0.000000   0.000000   0.333333
   12  H  1 ZZ   -0.000000   0.000000   0.000000   0.000000   0.333333
   13  H  1 XY    0.000000   0.000000   0.000000   0.000000   0.000000
   14  H  1 XZ    0.000000   0.000000   0.000000   0.000000   0.000000
   15  H  1 YZ    0.000000   0.000000   0.000000   0.000000   0.000000
   16  H  2  S    0.385177   0.000000   0.000000   0.562336   0.150820
   17  H  2  S    0.256207   0.000000   0.000000   0.564810   0.409222
   18  H  2  S    0.068345   0.000000   0.000000   0.233772   0.370371
   19  H  2  X    0.000000   0.324789   0.000000   0.000000   0.000000
   20  H  2  Y    0.000000   0.000000   0.324789   0.000000   0.000000
   21  H  2  Z   -0.446135   0.000000   0.000000  -0.089851  -0.202629
   22  H  2  X    0.000000   0.665528   0.000000   0.000000   0.000000
   23  H  2  Y    0.000000   0.000000   0.665528   0.000000   0.000000
   24  H  2  Z   -0.089851   0.000000   0.000000   0.123556  -0.512907
   25  H  2 XX    0.202629   0.000000   0.000000   0.512907   0.329811
   26  H  2 YY    0.202629   0.000000   0.000000   0.512907   0.109937
   27  H  2 ZZ    0.346553   0.000000   0.000000   0.360662   0.353829
   28  H  2 XY    0.000000   0.000000   0.000000   0.000000   0.000000
   29  H  2 XZ    0.000000  -0.326104   0.000000   0.000000   0.000000
   30  H  2 YZ    0.000000   0.000000  -0.326104   0.000000   0.000000

                     11         12         13         14         15

   11  H  1 YY    1.000000
   12  H  1 ZZ    0.333333   1.000000
   13  H  1 XY    0.000000   0.000000   1.000000
   14  H  1 XZ    0.000000   0.000000   0.000000   1.000000
   15  H  1 YZ    0.000000   0.000000   0.000000   0.000000   1.000000
   16  H  2  S    0.150820   0.597175   0.000000   0.000000   0.000000
   17  H  2  S    0.409222   0.541081   0.000000   0.000000   0.000000
   18  H  2  S    0.370371   0.384511   0.000000   0.000000   0.000000
   19  H  2  X    0.000000   0.000000   0.000000   0.467178   0.000000
   20  H  2  Y    0.000000   0.000000   0.000000   0.000000   0.467178
   21  H  2  Z   -0.202629  -0.346553   0.000000   0.000000   0.000000
   22  H  2  X    0.000000   0.000000   0.000000   0.326104   0.000000
   23  H  2  Y    0.000000   0.000000   0.000000   0.000000   0.326104
   24  H  2  Z   -0.512907  -0.360662   0.000000   0.000000   0.000000
   25  H  2 XX    0.109937   0.353829   0.000000   0.000000   0.000000
   26  H  2 YY    0.329811   0.353829   0.000000   0.000000   0.000000
   27  H  2 ZZ    0.353829   0.383094   0.000000   0.000000   0.000000
   28  H  2 XY    0.000000   0.000000   0.329811   0.000000   0.000000
   29  H  2 XZ    0.000000   0.000000   0.000000  -0.401865   0.000000
   30  H  2 YZ    0.000000   0.000000   0.000000   0.000000  -0.401865

                     16         17         18         19         20

   16  H  2  S    1.000000
   17  H  2  S    0.706285   1.000000
   18  H  2  S    0.373528   0.788878   1.000000
   19  H  2  X    0.000000   0.000000   0.000000   1.000000
   20  H  2  Y    0.000000   0.000000   0.000000   0.000000   1.000000
   21  H  2  Z    0.000000   0.000000   0.000000   0.000000   0.000000
   22  H  2  X    0.000000   0.000000   0.000000   0.614924   0.000000
   23  H  2  Y    0.000000   0.000000   0.000000   0.000000   0.614924
   24  H  2  Z    0.000000  -0.000000   0.000000   0.000000   0.000000
   25  H  2 XX    0.493531   0.690177   0.450774   0.000000   0.000000
   26  H  2 YY    0.493531   0.690177   0.450774   0.000000   0.000000
   27  H  2 ZZ    0.493531   0.690177   0.450774   0.000000   0.000000
   28  H  2 XY    0.000000   0.000000   0.000000   0.000000   0.000000
   29  H  2 XZ    0.000000   0.000000   0.000000   0.000000   0.000000
   30  H  2 YZ    0.000000   0.000000   0.000000   0.000000   0.000000

                     21         22         23         24         25

   21  H  2  Z    1.000000
   22  H  2  X    0.000000   1.000000
   23  H  2  Y    0.000000   0.000000   1.000000
   24  H  2  Z    0.614924   0.000000   0.000000   1.000000
   25  H  2 XX    0.000000   0.000000   0.000000  -0.000000   1.000000
   26  H  2 YY    0.000000   0.000000   0.000000  -0.000000   0.333333
   27  H  2 ZZ    0.000000   0.000000   0.000000  -0.000000   0.333333
   28  H  2 XY    0.000000   0.000000   0.000000   0.000000   0.000000
   29  H  2 XZ    0.000000  -0.000000   0.000000   0.000000   0.000000
   30  H  2 YZ    0.000000   0.000000  -0.000000   0.000000   0.000000

                     26         27         28         29         30

   26  H  2 YY    1.000000
   27  H  2 ZZ    0.333333   1.000000
   28  H  2 XY    0.000000   0.000000   1.000000
   29  H  2 XZ    0.000000   0.000000   0.000000   1.000000
   30  H  2 YZ    0.000000   0.000000   0.000000   0.000000   1.000000
 BARE NUCLEUS HAMILTONIAN INTEGRALS (H=T+V)

                      1          2          3          4          5

    1  H  1  S   -0.495907
    2  H  1  S   -0.993589  -1.044649
    3  H  1  S   -0.661314  -0.844478  -0.803855
    4  H  1  X    0.000000   0.000000   0.000000   1.623712
    5  H  1  Y    0.000000   0.000000   0.000000   0.000000   1.623712
    6  H  1  Z   -0.196409  -0.210963  -0.120894   0.000000   0.000000
    7  H  1  X    0.000000   0.000000   0.000000  -0.053409   0.000000
    8  H  1  Y    0.000000   0.000000   0.000000   0.000000  -0.053409
    9  H  1  Z   -0.123908  -0.251270  -0.195258   0.000000   0.000000
   10  H  1 XX   -0.823090  -0.597525  -0.497121   0.000000   0.000000
   11  H  1 YY   -0.823090  -0.597525  -0.497121   0.000000   0.000000
   12  H  1 ZZ   -0.919213  -0.763551  -0.605998   0.000000   0.000000
   13  H  1 XY    0.000000   0.000000   0.000000   0.000000   0.000000
   14  H  1 XZ    0.000000   0.000000   0.000000  -0.138228   0.000000
   15  H  1 YZ    0.000000   0.000000   0.000000   0.000000  -0.138228
   16  H  2  S   -0.593609  -0.722767  -0.565372   0.000000   0.000000
   17  H  2  S   -0.722767  -0.892601  -0.767261   0.000000   0.000000
   18  H  2  S   -0.565372  -0.767261  -0.757966   0.000000   0.000000
   19  H  2  X    0.000000   0.000000   0.000000  -0.119320   0.000000
   20  H  2  Y    0.000000   0.000000   0.000000   0.000000  -0.119320
   21  H  2  Z    0.461997   0.354698   0.191121   0.000000   0.000000
   22  H  2  X    0.000000   0.000000   0.000000  -0.176109   0.000000
   23  H  2  Y    0.000000   0.000000   0.000000   0.000000  -0.176109
   24  H  2  Z    0.656661   0.545748   0.345807   0.000000   0.000000
   25  H  2 XX   -0.437917  -0.487219  -0.431754   0.000000   0.000000
   26  H  2 YY   -0.437917  -0.487219  -0.431754   0.000000   0.000000
   27  H  2 ZZ   -0.536796  -0.763358  -0.577965   0.000000   0.000000
   28  H  2 XY    0.000000   0.000000   0.000000   0.000000   0.000000
   29  H  2 XZ    0.000000   0.000000   0.000000  -0.379453   0.000000
   30  H  2 YZ    0.000000   0.000000   0.000000   0.000000  -0.379453

                      6          7          8          9         10

    6  H  1  Z    1.454970
    7  H  1  X    0.000000  -0.196873
    8  H  1  Y    0.000000   0.000000  -0.196873
    9  H  1  Z   -0.191344   0.000000   0.000000  -0.412780
   10  H  1 XX   -0.079806   0.000000   0.000000  -0.078937   0.854362
   11  H  1 YY   -0.079806   0.000000   0.000000  -0.078937  -0.654768
   12  H  1 ZZ   -0.374109   0.000000   0.000000  -0.404317  -0.691318
   13  H  1 XY    0.000000   0.000000   0.000000   0.000000   0.000000
   14  H  1 XZ    0.000000  -0.136723   0.000000   0.000000   0.000000
   15  H  1 YZ    0.000000   0.000000  -0.136723   0.000000   0.000000
   16  H  2  S   -0.461997   0.000000   0.000000  -0.656661  -0.437917
   17  H  2  S   -0.354698   0.000000   0.000000  -0.545748  -0.487219
   18  H  2  S   -0.191121   0.000000   0.000000  -0.345807  -0.431754
   19  H  2  X    0.000000  -0.176109   0.000000   0.000000   0.000000
   20  H  2  Y    0.000000   0.000000  -0.176109   0.000000   0.000000
   21  H  2  Z   -0.524561   0.000000   0.000000  -0.053159   0.406853
   22  H  2  X    0.000000  -0.275620   0.000000   0.000000   0.000000
   23  H  2  Y    0.000000   0.000000  -0.275620   0.000000   0.000000
   24  H  2  Z   -0.053159   0.000000   0.000000  -0.140258   0.331538
   25  H  2 XX   -0.406853   0.000000   0.000000  -0.331538  -0.131517
   26  H  2 YY   -0.406853   0.000000   0.000000  -0.331538  -0.353715
   27  H  2 ZZ    0.355032   0.000000   0.000000  -0.326045  -0.458964
   28  H  2 XY    0.000000   0.000000   0.000000   0.000000   0.000000
   29  H  2 XZ    0.000000   0.001616   0.000000   0.000000   0.000000
   30  H  2 YZ    0.000000   0.000000   0.001616   0.000000   0.000000

                     11         12         13         14         15

   11  H  1 YY    0.854362
   12  H  1 ZZ   -0.691318   0.466017
   13  H  1 XY    0.000000   0.000000   2.263695
   14  H  1 XZ    0.000000   0.000000   0.000000   2.154046
   15  H  1 YZ    0.000000   0.000000   0.000000   0.000000   2.154046
   16  H  2  S   -0.437917  -0.536796   0.000000   0.000000   0.000000
   17  H  2  S   -0.487219  -0.763358   0.000000   0.000000   0.000000
   18  H  2  S   -0.431754  -0.577965   0.000000   0.000000   0.000000
   19  H  2  X    0.000000   0.000000   0.000000   0.379453   0.000000
   20  H  2  Y    0.000000   0.000000   0.000000   0.000000   0.379453
   21  H  2  Z    0.406853  -0.355032   0.000000   0.000000   0.000000
   22  H  2  X    0.000000   0.000000   0.000000  -0.001616   0.000000
   23  H  2  Y    0.000000   0.000000   0.000000   0.000000  -0.001616
   24  H  2  Z    0.331538   0.326045   0.000000   0.000000   0.000000
   25  H  2 XX   -0.353715  -0.458964   0.000000   0.000000   0.000000
   26  H  2 YY   -0.131517  -0.458964   0.000000   0.000000   0.000000
   27  H  2 ZZ   -0.458964  -0.715193   0.000000   0.000000   0.000000
   28  H  2 XY    0.000000   0.000000   0.333297   0.000000   0.000000
   29  H  2 XZ    0.000000   0.000000   0.000000  -1.050060   0.000000
   30  H  2 YZ    0.000000   0.000000   0.000000   0.000000  -1.050060

                     16         17         18         19         20

   16  H  2  S   -0.495907
   17  H  2  S   -0.993589  -1.044649
   18  H  2  S   -0.661314  -0.844478  -0.803855
   19  H  2  X    0.000000   0.000000   0.000000   1.623712
   20  H  2  Y    0.000000   0.000000   0.000000   0.000000   1.623712
   21  H  2  Z    0.196409   0.210963   0.120894   0.000000   0.000000
   22  H  2  X    0.000000   0.000000   0.000000  -0.053409   0.000000
   23  H  2  Y    0.000000   0.000000   0.000000   0.000000  -0.053409
   24  H  2  Z    0.123908   0.251270   0.195258   0.000000   0.000000
   25  H  2 XX   -0.823090  -0.597525  -0.497121   0.000000   0.000000
   26  H  2 YY   -0.823090  -0.597525  -0.497121   0.000000   0.000000
   27  H  2 ZZ   -0.919213  -0.763551  -0.605998   0.000000   0.000000
   28  H  2 XY    0.000000   0.000000   0.000000   0.000000   0.000000
   29  H  2 XZ    0.000000   0.000000   0.000000   0.138228   0.000000
   30  H  2 YZ    0.000000   0.000000   0.000000   0.000000   0.138228

                     21         22         23         24         25

   21  H  2  Z    1.454970
   22  H  2  X    0.000000  -0.196873
   23  H  2  Y    0.000000   0.000000  -0.196873
   24  H  2  Z   -0.191344   0.000000   0.000000  -0.412780
   25  H  2 XX    0.079806   0.000000   0.000000   0.078937   0.854362
   26  H  2 YY    0.079806   0.000000   0.000000   0.078937  -0.654768
   27  H  2 ZZ    0.374109   0.000000   0.000000   0.404317  -0.691318
   28  H  2 XY    0.000000   0.000000   0.000000   0.000000   0.000000
   29  H  2 XZ    0.000000   0.136723   0.000000   0.000000   0.000000
   30  H  2 YZ    0.000000   0.000000   0.136723   0.000000   0.000000

                     26         27         28         29         30

   26  H  2 YY    0.854362
   27  H  2 ZZ   -0.691318   0.466017
   28  H  2 XY    0.000000   0.000000   2.263695
   29  H  2 XZ    0.000000   0.000000   0.000000   2.154046
   30  H  2 YZ    0.000000   0.000000   0.000000   0.000000   2.154046
 KINETIC ENERGY INTEGRALS

                      1          2          3          4          5

    1  H  1  S    2.304680
    2  H  1  S    0.549013   0.488700
    3  H  1  S    0.106270   0.184800   0.154050
    4  H  1  X    0.000000   0.000000   0.000000   3.517500
    5  H  1  Y    0.000000   0.000000   0.000000   0.000000   3.517500
    6  H  1  Z    0.000000   0.000000   0.000000   0.000000   0.000000
    7  H  1  X    0.000000   0.000000   0.000000   0.935088   0.000000
    8  H  1  Y    0.000000   0.000000   0.000000   0.000000   0.935088
    9  H  1  Z    0.000000  -0.000000  -0.000000   0.000000   0.000000
   10  H  1 XX    0.054009   0.409684   0.118385   0.000000   0.000000
   11  H  1 YY    0.054009   0.409684   0.118385   0.000000   0.000000
   12  H  1 ZZ    0.054009   0.409684   0.118385   0.000000   0.000000
   13  H  1 XY    0.000000   0.000000   0.000000   0.000000   0.000000
   14  H  1 XZ    0.000000   0.000000   0.000000   0.000000   0.000000
   15  H  1 YZ    0.000000   0.000000   0.000000   0.000000   0.000000
   16  H  2  S    0.037787   0.202748   0.075526   0.000000   0.000000
   17  H  2  S    0.202748   0.268047   0.139726   0.000000   0.000000
   18  H  2  S    0.075526   0.139726   0.128373   0.000000   0.000000
   19  H  2  X    0.000000   0.000000   0.000000   0.328942   0.000000
   20  H  2  Y    0.000000   0.000000   0.000000   0.000000   0.328942
   21  H  2  Z   -0.527417  -0.263624  -0.030080   0.000000   0.000000
   22  H  2  X    0.000000   0.000000   0.000000   0.367788   0.000000
   23  H  2  Y    0.000000   0.000000   0.000000   0.000000   0.367788
   24  H  2  Z   -0.626967  -0.425768  -0.088447   0.000000   0.000000
   25  H  2 XX   -0.159863   0.136374   0.083647   0.000000   0.000000
   26  H  2 YY   -0.159863   0.136374   0.083647   0.000000   0.000000
   27  H  2 ZZ    1.017949   0.331912   0.092392   0.000000   0.000000
   28  H  2 XY    0.000000   0.000000   0.000000   0.000000   0.000000
   29  H  2 XZ    0.000000   0.000000   0.000000  -1.259414   0.000000
   30  H  2 YZ    0.000000   0.000000   0.000000   0.000000  -1.259414

                      6          7          8          9         10

    6  H  1  Z    3.517500
    7  H  1  X    0.000000   0.970000
    8  H  1  Y    0.000000   0.000000   0.970000
    9  H  1  Z    0.935088   0.000000   0.000000   0.970000
   10  H  1 XX    0.000000   0.000000   0.000000   0.000000   2.290167
   11  H  1 YY    0.000000   0.000000   0.000000   0.000000  -0.176167
   12  H  1 ZZ   -0.000000   0.000000   0.000000   0.000000  -0.176167
   13  H  1 XY    0.000000   0.000000   0.000000   0.000000   0.000000
   14  H  1 XZ    0.000000   0.000000   0.000000   0.000000   0.000000
   15  H  1 YZ    0.000000   0.000000   0.000000   0.000000   0.000000
   16  H  2  S    0.527417   0.000000   0.000000   0.626967  -0.159863
   17  H  2  S    0.263624   0.000000   0.000000   0.425768   0.136374
   18  H  2  S    0.030080   0.000000   0.000000   0.088447   0.083647
   19  H  2  X    0.000000   0.367788   0.000000   0.000000   0.000000
   20  H  2  Y    0.000000   0.000000   0.367788   0.000000   0.000000
   21  H  2  Z   -1.591556   0.000000   0.000000  -0.353957   0.023952
   22  H  2  X    0.000000   0.540420   0.000000   0.000000   0.000000
   23  H  2  Y    0.000000   0.000000   0.540420   0.000000   0.000000
   24  H  2  Z   -0.353957   0.000000   0.000000  -0.109955  -0.447557
   25  H  2 XX   -0.023952   0.000000   0.000000   0.447557   0.368632
   26  H  2 YY   -0.023952   0.000000   0.000000   0.447557  -0.186999
   27  H  2 ZZ    1.188965   0.000000   0.000000   0.323892   0.171532
   28  H  2 XY    0.000000   0.000000   0.000000   0.000000   0.000000
   29  H  2 XZ    0.000000  -0.537612   0.000000   0.000000   0.000000
   30  H  2 YZ    0.000000   0.000000  -0.537612   0.000000   0.000000

                     11         12         13         14         15

   11  H  1 YY    2.290167
   12  H  1 ZZ   -0.176167   2.290167
   13  H  1 XY    0.000000   0.000000   3.699500
   14  H  1 XZ    0.000000   0.000000   0.000000   3.699500
   15  H  1 YZ    0.000000   0.000000   0.000000   0.000000   3.699500
   16  H  2  S   -0.159863   1.017949   0.000000   0.000000   0.000000
   17  H  2  S    0.136374   0.331912   0.000000   0.000000   0.000000
   18  H  2  S    0.083647   0.092392   0.000000   0.000000   0.000000
   19  H  2  X    0.000000   0.000000   0.000000   1.259414   0.000000
   20  H  2  Y    0.000000   0.000000   0.000000   0.000000   1.259414
   21  H  2  Z    0.023952  -1.188965   0.000000   0.000000   0.000000
   22  H  2  X    0.000000   0.000000   0.000000   0.537612   0.000000
   23  H  2  Y    0.000000   0.000000   0.000000   0.000000   0.537612
   24  H  2  Z   -0.447557  -0.323892   0.000000   0.000000   0.000000
   25  H  2 XX   -0.186999   0.171532   0.000000   0.000000   0.000000
   26  H  2 YY    0.368632   0.171532   0.000000   0.000000   0.000000
   27  H  2 ZZ    0.171532   0.100333   0.000000   0.000000   0.000000
   28  H  2 XY    0.000000   0.000000   0.833446   0.000000   0.000000
   29  H  2 XZ    0.000000   0.000000   0.000000  -1.788910   0.000000
   30  H  2 YZ    0.000000   0.000000   0.000000   0.000000  -1.788910

                     16         17         18         19         20

   16  H  2  S    2.304680
   17  H  2  S    0.549013   0.488700
   18  H  2  S    0.106270   0.184800   0.154050
   19  H  2  X    0.000000   0.000000   0.000000   3.517500
   20  H  2  Y    0.000000   0.000000   0.000000   0.000000   3.517500
   21  H  2  Z   -0.000000  -0.000000   0.000000   0.000000   0.000000
   22  H  2  X    0.000000   0.000000   0.000000   0.935088   0.000000
   23  H  2  Y    0.000000   0.000000   0.000000   0.000000   0.935088
   24  H  2  Z   -0.000000   0.000000   0.000000   0.000000   0.000000
   25  H  2 XX    0.054009   0.409684   0.118385   0.000000   0.000000
   26  H  2 YY    0.054009   0.409684   0.118385   0.000000   0.000000
   27  H  2 ZZ    0.054009   0.409684   0.118385   0.000000   0.000000
   28  H  2 XY    0.000000   0.000000   0.000000   0.000000   0.000000
   29  H  2 XZ    0.000000   0.000000   0.000000  -0.000000   0.000000
   30  H  2 YZ    0.000000   0.000000   0.000000   0.000000  -0.000000

                     21         22         23         24         25

   21  H  2  Z    3.517500
   22  H  2  X    0.000000   0.970000
   23  H  2  Y    0.000000   0.000000   0.970000
   24  H  2  Z    0.935088   0.000000   0.000000   0.970000
   25  H  2 XX   -0.000000   0.000000   0.000000  -0.000000   2.290167
   26  H  2 YY   -0.000000   0.000000   0.000000  -0.000000  -0.176167
   27  H  2 ZZ    0.000000   0.000000   0.000000  -0.000000  -0.176167
   28  H  2 XY    0.000000   0.000000   0.000000   0.000000   0.000000
   29  H  2 XZ    0.000000  -0.000000   0.000000   0.000000   0.000000
   30  H  2 YZ    0.000000   0.000000  -0.000000   0.000000   0.000000

                     26         27         28         29         30

   26  H  2 YY    2.290167
   27  H  2 ZZ   -0.176167   2.290167
   28  H  2 XY    0.000000   0.000000   3.699500
   29  H  2 XZ    0.000000   0.000000   0.000000   3.699500
   30  H  2 YZ    0.000000   0.000000   0.000000   0.000000   3.699500
 Z-ANGULAR MOMENTUM INTEGRALS

                      1          2          3          4          5

    1  H  1  S    0.000000
    2  H  1  S    0.000000   0.000000
    3  H  1  S    0.000000   0.000000   0.000000
    4  H  1  X    0.000000   0.000000   0.000000   0.000000
    5  H  1  Y    0.000000   0.000000   0.000000  -1.000000   0.000000
    6  H  1  Z    0.000000   0.000000   0.000000   0.000000   0.000000
    7  H  1  X    0.000000   0.000000   0.000000   0.000000   0.614924
    8  H  1  Y    0.000000   0.000000   0.000000  -0.614924   0.000000
    9  H  1  Z    0.000000   0.000000   0.000000   0.000000   0.000000
   10  H  1 XX    0.000000   0.000000   0.000000   0.000000   0.000000
   11  H  1 YY    0.000000   0.000000   0.000000   0.000000   0.000000
   12  H  1 ZZ    0.000000   0.000000   0.000000   0.000000   0.000000
   13  H  1 XY    0.000000   0.000000   0.000000   0.000000   0.000000
   14  H  1 XZ    0.000000   0.000000   0.000000   0.000000   0.000000
   15  H  1 YZ    0.000000   0.000000   0.000000   0.000000   0.000000
   16  H  2  S    0.000000   0.000000   0.000000   0.000000   0.000000
   17  H  2  S    0.000000   0.000000   0.000000   0.000000   0.000000
   18  H  2  S    0.000000   0.000000   0.000000   0.000000   0.000000
   19  H  2  X    0.000000   0.000000   0.000000   0.000000   0.228429
   20  H  2  Y    0.000000   0.000000   0.000000  -0.228429   0.000000
   21  H  2  Z    0.000000   0.000000   0.000000   0.000000   0.000000
   22  H  2  X    0.000000   0.000000   0.000000   0.000000   0.324789
   23  H  2  Y    0.000000   0.000000   0.000000  -0.324789   0.000000
   24  H  2  Z    0.000000   0.000000   0.000000   0.000000   0.000000
   25  H  2 XX    0.000000   0.000000   0.000000   0.000000   0.000000
   26  H  2 YY    0.000000   0.000000   0.000000   0.000000   0.000000
   27  H  2 ZZ    0.000000   0.000000   0.000000   0.000000   0.000000
   28  H  2 XY    0.000000   0.000000   0.000000   0.000000   0.000000
   29  H  2 XZ    0.000000   0.000000   0.000000   0.000000  -0.467178
   30  H  2 YZ    0.000000   0.000000   0.000000   0.467178   0.000000

                      6          7          8          9         10

    6  H  1  Z    0.000000
    7  H  1  X    0.000000   0.000000
    8  H  1  Y    0.000000  -1.000000   0.000000
    9  H  1  Z    0.000000   0.000000   0.000000   0.000000
   10  H  1 XX    0.000000   0.000000   0.000000   0.000000   0.000000
   11  H  1 YY    0.000000   0.000000   0.000000   0.000000   0.000000
   12  H  1 ZZ    0.000000   0.000000   0.000000   0.000000   0.000000
   13  H  1 XY    0.000000   0.000000   0.000000   0.000000  -1.154701
   14  H  1 XZ    0.000000   0.000000   0.000000   0.000000   0.000000
   15  H  1 YZ    0.000000  -0.000000   0.000000   0.000000   0.000000
   16  H  2  S    0.000000   0.000000   0.000000   0.000000   0.000000
   17  H  2  S    0.000000   0.000000   0.000000   0.000000   0.000000
   18  H  2  S    0.000000   0.000000   0.000000   0.000000   0.000000
   19  H  2  X    0.000000   0.000000   0.324789   0.000000   0.000000
   20  H  2  Y    0.000000  -0.324789   0.000000   0.000000   0.000000
   21  H  2  Z    0.000000   0.000000   0.000000   0.000000   0.000000
   22  H  2  X    0.000000   0.000000   0.665528   0.000000   0.000000
   23  H  2  Y    0.000000  -0.665528   0.000000   0.000000   0.000000
   24  H  2  Z    0.000000   0.000000   0.000000   0.000000   0.000000
   25  H  2 XX    0.000000   0.000000   0.000000   0.000000   0.000000
   26  H  2 YY    0.000000   0.000000   0.000000   0.000000   0.000000
   27  H  2 ZZ    0.000000   0.000000   0.000000   0.000000   0.000000
   28  H  2 XY    0.000000   0.000000   0.000000   0.000000  -0.380833
   29  H  2 XZ    0.000000   0.000000  -0.326104   0.000000   0.000000
   30  H  2 YZ    0.000000   0.326104   0.000000   0.000000   0.000000

                     11         12         13         14         15

   11  H  1 YY    0.000000
   12  H  1 ZZ    0.000000   0.000000
   13  H  1 XY    1.154701   0.000000   0.000000
   14  H  1 XZ    0.000000   0.000000   0.000000   0.000000
   15  H  1 YZ    0.000000   0.000000   0.000000  -1.000000   0.000000
   16  H  2  S    0.000000   0.000000   0.000000   0.000000   0.000000
   17  H  2  S    0.000000   0.000000   0.000000   0.000000   0.000000
   18  H  2  S    0.000000   0.000000   0.000000   0.000000   0.000000
   19  H  2  X    0.000000   0.000000   0.000000   0.000000   0.467178
   20  H  2  Y    0.000000   0.000000   0.000000  -0.467178   0.000000
   21  H  2  Z    0.000000   0.000000   0.000000   0.000000   0.000000
   22  H  2  X    0.000000   0.000000   0.000000   0.000000   0.326104
   23  H  2  Y    0.000000   0.000000   0.000000  -0.326104   0.000000
   24  H  2  Z    0.000000   0.000000   0.000000   0.000000   0.000000
   25  H  2 XX    0.000000   0.000000   0.380833   0.000000   0.000000
   26  H  2 YY    0.000000   0.000000  -0.380833   0.000000   0.000000
   27  H  2 ZZ    0.000000   0.000000   0.000000   0.000000   0.000000
   28  H  2 XY    0.380833   0.000000   0.000000   0.000000   0.000000
   29  H  2 XZ    0.000000   0.000000   0.000000   0.000000  -0.401865
   30  H  2 YZ    0.000000   0.000000   0.000000   0.401865   0.000000

                     16         17         18         19         20

   16  H  2  S    0.000000
   17  H  2  S    0.000000   0.000000
   18  H  2  S    0.000000   0.000000   0.000000
   19  H  2  X    0.000000   0.000000   0.000000   0.000000
   20  H  2  Y    0.000000   0.000000   0.000000  -1.000000   0.000000
   21  H  2  Z    0.000000   0.000000   0.000000   0.000000   0.000000
   22  H  2  X    0.000000   0.000000   0.000000   0.000000   0.614924
   23  H  2  Y    0.000000   0.000000   0.000000  -0.614924   0.000000
   24  H  2  Z    0.000000   0.000000   0.000000   0.000000   0.000000
   25  H  2 XX    0.000000   0.000000   0.000000   0.000000   0.000000
   26  H  2 YY    0.000000   0.000000   0.000000   0.000000   0.000000
   27  H  2 ZZ    0.000000   0.000000   0.000000   0.000000   0.000000
   28  H  2 XY    0.000000   0.000000   0.000000   0.000000   0.000000
   29  H  2 XZ    0.000000   0.000000   0.000000   0.000000   0.000000
   30  H  2 YZ    0.000000   0.000000   0.000000   0.000000   0.000000

                     21         22         23         24         25

   21  H  2  Z    0.000000
   22  H  2  X    0.000000   0.000000
   23  H  2  Y    0.000000  -1.000000   0.000000
   24  H  2  Z    0.000000   0.000000   0.000000   0.000000
   25  H  2 XX    0.000000   0.000000   0.000000   0.000000   0.000000
   26  H  2 YY    0.000000   0.000000   0.000000   0.000000   0.000000
   27  H  2 ZZ    0.000000   0.000000   0.000000   0.000000   0.000000
   28  H  2 XY    0.000000   0.000000   0.000000   0.000000  -1.154701
   29  H  2 XZ    0.000000   0.000000  -0.000000   0.000000   0.000000
   30  H  2 YZ    0.000000   0.000000   0.000000   0.000000   0.000000

                     26         27         28         29         30

   26  H  2 YY    0.000000
   27  H  2 ZZ    0.000000   0.000000
   28  H  2 XY    1.154701   0.000000   0.000000
   29  H  2 XZ    0.000000   0.000000   0.000000   0.000000
   30  H  2 YZ    0.000000   0.000000   0.000000  -1.000000   0.000000
 ...... END OF ONE-ELECTRON INTEGRALS ......
 STEP CPU TIME =     0.00 TOTAL CPU TIME =        0.0 (    0.0 MIN)
 TOTAL WALL CLOCK TIME=        0.4 SECONDS, CPU UTILIZATION IS   2.33%

          -------------
          GUESS OPTIONS
          -------------
          GUESS =HUCKEL            NORB  =       0          NORDER=       0
          MIX   =       F          PRTMO =       F          PUNMO =       F
          TOLZ  = 1.0E-08          TOLE  = 1.0E-05
          SYMDEN=       F          PURIFY=       F

 INITIAL GUESS ORBITALS GENERATED BY HUCKEL   ROUTINE.
 HUCKEL GUESS REQUIRES      8048 WORDS.

 SYMMETRIES FOR INITIAL GUESS ORBITALS FOLLOW.   BOTH SET(S).
     1 ORBITALS ARE OCCUPIED (    0 CORE ORBITALS).
     1=AG       2=B1U      3=AG       4=AG       5=AG       6=AG       7=AG  
     8=AG       9=AG      10=AU      11=B3U 
 ...... END OF INITIAL ORBITAL SELECTION ......
 STEP CPU TIME =     0.01 TOTAL CPU TIME =        0.0 (    0.0 MIN)
 TOTAL WALL CLOCK TIME=        0.5 SECONDS, CPU UTILIZATION IS   4.00%

                    ----------------------
                    AO INTEGRAL TECHNOLOGY
                    ----------------------
     S,P,L SHELL ROTATED AXIS INTEGRALS, REPROGRAMMED BY
        KAZUYA ISHIMURA (IMS) AND JOSE SIERRA (SYNSTAR).
     S,P,D,L SHELL ROTATED AXIS INTEGRALS PROGRAMMED BY
        KAZUYA ISHIMURA (INSTITUTE FOR MOLECULAR SCIENCE).
     S,P,D,F,G SHELL TO TOTAL QUARTET ANGULAR MOMENTUM SUM 5,
        ERIC PROGRAM BY GRAHAM FLETCHER (ELORET AND NASA ADVANCED
        SUPERCOMPUTING DIVISION, AMES RESEARCH CENTER).
     S,P,D,F,G,L SHELL GENERAL RYS QUADRATURE PROGRAMMED BY
        MICHEL DUPUIS (PACIFIC NORTHWEST NATIONAL LABORATORY).

          --------------------
          2 ELECTRON INTEGRALS
          --------------------

 THE -PK- OPTION IS OFF, THE INTEGRALS ARE NOT IN SUPERMATRIX FORM.
 STORING   15000 INTEGRALS/RECORD ON DISK, USING 12 BYTES/INTEGRAL.
 TWO ELECTRON INTEGRAL EVALUATION REQUIRES   90474 WORDS OF MEMORY.
 II,JST,KST,LST =  1  1  1  1 NREC =         1 INTLOC =    1
 II,JST,KST,LST =  2  1  1  1 NREC =         1 INTLOC =    1
 II,JST,KST,LST =  3  1  1  1 NREC =         1 INTLOC =    1
 II,JST,KST,LST =  4  1  1  1 NREC =         1 INTLOC =    1
 II,JST,KST,LST =  5  1  1  1 NREC =         1 INTLOC =    1
 II,JST,KST,LST =  6  1  1  1 NREC =         1 INTLOC =    1
 II,JST,KST,LST =  7  1  1  1 NREC =         1 INTLOC =    1
 II,JST,KST,LST =  8  1  1  1 NREC =         1 INTLOC =    5
 II,JST,KST,LST =  9  1  1  1 NREC =         1 INTLOC =   32
 II,JST,KST,LST = 10  1  1  1 NREC =         1 INTLOC =  124
 II,JST,KST,LST = 11  1  1  1 NREC =         1 INTLOC =  595
 II,JST,KST,LST = 12  1  1  1 NREC =         1 INTLOC = 2269
 TOTAL NUMBER OF NONZERO TWO-ELECTRON INTEGRALS =               14905
          1 INTEGRAL RECORDS WERE STORED ON DISK FILE  8.
  ...... END OF TWO-ELECTRON INTEGRALS .....
 STEP CPU TIME =     0.03 TOTAL CPU TIME =        0.0 (    0.0 MIN)
 TOTAL WALL CLOCK TIME=        0.6 SECONDS, CPU UTILIZATION IS   8.47%

          --------------------------
                 RHF SCF CALCULATION
          --------------------------

     NUCLEAR ENERGY =         0.6902568860
     MAXIT =   30     NPUNCH=    2
     EXTRAP=T  DAMP=F  SHIFT=F  RSTRCT=F  DIIS=F  DEM=F  SOSCF=T
     DENSITY MATRIX CONV=  1.00E-06
     SOSCF WILL OPTIMIZE      29 ORBITAL ROTATIONS, SOGTOL=   0.250
     MEMORY REQUIRED FOR RHF ITERS=     36836 WORDS.

 ITER EX DEM     TOTAL ENERGY        E CHANGE  DENSITY CHANGE     ORB. GRAD
   1  0  0       -1.1198110626    -1.1198110626   0.051649167   0.000000000
          ---------------START SECOND ORDER SCF---------------
   2  1  0       -1.1316706739    -0.0118596113   0.016286092   0.012032024
   3  2  0       -1.1322791916    -0.0006085178   0.005484467   0.002820464
   4  3  0       -1.1323126150    -0.0000334234   0.000086608   0.000090076
   5  4  0       -1.1323126271    -0.0000000121   0.000018110   0.000011187
   6  5  0       -1.1323126273    -0.0000000002   0.000000217   0.000000160
   7  6  0       -1.1323126273    -0.0000000000   0.000000031   0.000000027

          -----------------
          DENSITY CONVERGED
          -----------------
     TIME TO FORM FOCK OPERATORS=       0.0 SECONDS (       0.0 SEC/ITER)
     TIME TO SOLVE SCF EQUATIONS=       0.0 SECONDS (       0.0 SEC/ITER)

 FINAL RHF ENERGY IS       -1.1323126273 AFTER   7 ITERATIONS

 LZ VALUE ANALYSIS FOR THE MOS
 ----------------------------------------
 MO     1 (    1) HAS LZ(WEIGHT)= 0.00(100.0%) 
 MO     2 (    2) HAS LZ(WEIGHT)= 0.00(100.0%) 
 MO     3 (    3) HAS LZ(WEIGHT)= 0.00(100.0%) 
 MO     4 (    4) HAS LZ(WEIGHT)= 0.00(100.0%) 
 MO     5 (    5) HAS LZ(WEIGHT)=-1.00( 50.0%)  1.00( 50.0%) 
 MO     6 (    5) HAS LZ(WEIGHT)=-1.00( 50.0%)  1.00( 50.0%) 
 MO     7 (    6) HAS LZ(WEIGHT)= 0.00(100.0%) 
 MO     8 (    7) HAS LZ(WEIGHT)=-1.00( 50.0%)  1.00( 50.0%) 
 MO     9 (    7) HAS LZ(WEIGHT)=-1.00( 50.0%)  1.00( 50.0%) 
 MO    10 (    8) HAS LZ(WEIGHT)= 0.00(100.0%) 
 MO    11 (    9) HAS LZ(WEIGHT)= 0.00(100.0%) 
 MO    12 (   10) HAS LZ(WEIGHT)= 0.00(100.0%) 
 MO    13 (   11) HAS LZ(WEIGHT)=-2.00( 50.0%)  2.00( 50.0%) 
 MO    14 (   11) HAS LZ(WEIGHT)=-2.00( 50.0%)  2.00( 50.0%) 
 MO    15 (   12) HAS LZ(WEIGHT)=-1.00( 50.0%)  1.00( 50.0%) 
 MO    16 (   12) HAS LZ(WEIGHT)=-1.00( 50.0%)  1.00( 50.0%) 
 MO    17 (   13) HAS LZ(WEIGHT)= 0.00(100.0%) 
 MO    18 (   14) HAS LZ(WEIGHT)=-1.00( 50.0%)  1.00( 50.0%) 
 MO    19 (   14) HAS LZ(WEIGHT)=-1.00( 50.0%)  1.00( 50.0%) 
 MO    20 (   15) HAS LZ(WEIGHT)=-2.00( 50.0%)  2.00( 50.0%) 
 MO    21 (   15) HAS LZ(WEIGHT)=-2.00( 50.0%)  2.00( 50.0%) 
 MO    22 (   16) HAS LZ(WEIGHT)=-1.00( 50.0%)  1.00( 50.0%) 
 MO    23 (   16) HAS LZ(WEIGHT)=-1.00( 50.0%)  1.00( 50.0%) 
 MO    24 (   17) HAS LZ(WEIGHT)= 0.00(100.0%) 
 MO    25 (   18) HAS LZ(WEIGHT)= 0.00(100.0%) 
 MO    26 (   19) HAS LZ(WEIGHT)= 0.00(100.0%) 
 MO    27 (   20) HAS LZ(WEIGHT)=-1.00( 50.0%)  1.00( 50.0%) 
 MO    28 (   20) HAS LZ(WEIGHT)=-1.00( 50.0%)  1.00( 50.0%) 
 MO    29 (   21) HAS LZ(WEIGHT)= 0.00(100.0%) 
 MO    30 (   22) HAS LZ(WEIGHT)= 0.00(100.0%) 

          ------------
          EIGENVECTORS
          ------------

                      1          2          3          4          5
                   -0.5866     0.1612     0.2827     0.6060     0.6899
                     AG         B1U        AG         B1U        B2U 
    1  H  1  S    0.182103   0.116463  -0.033241   0.050882  -0.000000
    2  H  1  S    0.290396  -0.326714   1.071752  -2.187937  -0.000000
    3  H  1  S    0.137769   2.321744  -0.953457   2.375280  -0.000000
    4  H  1  X   -0.000000   0.000000   0.000000  -0.000000  -0.000000
    5  H  1  Y   -0.000000   0.000000   0.000000  -0.000000  -0.059115
    6  H  1  Z    0.011862  -0.008167   0.020442   0.007907  -0.000000
    7  H  1  X   -0.000000   0.000000   0.000000  -0.000000  -0.000000
    8  H  1  Y   -0.000000   0.000000   0.000000  -0.000000   0.581629
    9  H  1  Z    0.018457  -0.042288  -0.023988   0.042035  -0.000000
   10  H  1 XX   -0.002318   0.037450  -0.098093   0.134220  -0.000000
   11  H  1 YY   -0.002318   0.037450  -0.098093   0.134220  -0.000000
   12  H  1 ZZ   -0.000589   0.036076  -0.098548   0.127481  -0.000000
   13  H  1 XY   -0.000000   0.000000   0.000000  -0.000000  -0.000000
   14  H  1 XZ   -0.000000   0.000000   0.000000  -0.000000  -0.000000
   15  H  1 YZ   -0.000000   0.000000   0.000000  -0.000000  -0.010025
   16  H  2  S    0.182103  -0.116463  -0.033241  -0.050882  -0.000000
   17  H  2  S    0.290396   0.326714   1.071752   2.187937  -0.000000
   18  H  2  S    0.137769  -2.321744  -0.953457  -2.375280  -0.000000
   19  H  2  X   -0.000000   0.000000   0.000000  -0.000000  -0.000000
   20  H  2  Y   -0.000000   0.000000   0.000000  -0.000000  -0.059115
   21  H  2  Z   -0.011862  -0.008167  -0.020442   0.007907  -0.000000
   22  H  2  X   -0.000000   0.000000   0.000000  -0.000000  -0.000000
   23  H  2  Y   -0.000000   0.000000   0.000000  -0.000000   0.581629
   24  H  2  Z   -0.018457  -0.042288   0.023988   0.042035  -0.000000
   25  H  2 XX   -0.002318  -0.037450  -0.098093  -0.134220  -0.000000
   26  H  2 YY   -0.002318  -0.037450  -0.098093  -0.134220  -0.000000
   27  H  2 ZZ   -0.000589  -0.036076  -0.098548  -0.127481  -0.000000
   28  H  2 XY   -0.000000   0.000000   0.000000  -0.000000  -0.000000
   29  H  2 XZ   -0.000000   0.000000   0.000000  -0.000000  -0.000000
   30  H  2 YZ   -0.000000   0.000000   0.000000  -0.000000   0.010025

                      6          7          8          9         10
                    0.6899     1.0864     1.1156     1.1156     1.5207
                     B3U        AG         B3G        B2G        B1U 
    1  H  1  S   -0.000000   0.055431  -0.000000  -0.000000   0.062897
    2  H  1  S   -0.000000  -0.813883  -0.000000  -0.000000  11.679539
    3  H  1  S   -0.000000   0.387130  -0.000000  -0.000000  -0.115768
    4  H  1  X   -0.059115  -0.000000  -0.000000  -0.073597   0.000000
    5  H  1  Y   -0.000000  -0.000000  -0.073597  -0.000000   0.000000
    6  H  1  Z   -0.000000  -0.103539  -0.000000  -0.000000   0.131879
    7  H  1  X    0.581629  -0.000000  -0.000000   1.369344   0.000000
    8  H  1  Y   -0.000000  -0.000000   1.369344  -0.000000   0.000000
    9  H  1  Z   -0.000000   1.008107  -0.000000  -0.000000   5.886252
   10  H  1 XX   -0.000000   0.016567  -0.000000  -0.000000  -0.128525
   11  H  1 YY   -0.000000   0.016567  -0.000000  -0.000000  -0.128525
   12  H  1 ZZ   -0.000000   0.098831  -0.000000  -0.000000   0.334248
   13  H  1 XY   -0.000000  -0.000000  -0.000000  -0.000000   0.000000
   14  H  1 XZ   -0.010025  -0.000000  -0.000000   0.094938   0.000000
   15  H  1 YZ   -0.000000  -0.000000   0.094938  -0.000000   0.000000
   16  H  2  S   -0.000000   0.055431  -0.000000  -0.000000  -0.062897
   17  H  2  S   -0.000000  -0.813883  -0.000000  -0.000000 -11.679539
   18  H  2  S   -0.000000   0.387130  -0.000000  -0.000000   0.115768
   19  H  2  X   -0.059115  -0.000000  -0.000000   0.073597   0.000000
   20  H  2  Y   -0.000000  -0.000000   0.073597  -0.000000   0.000000
   21  H  2  Z   -0.000000   0.103539  -0.000000  -0.000000   0.131879
   22  H  2  X    0.581629  -0.000000  -0.000000  -1.369344   0.000000
   23  H  2  Y   -0.000000  -0.000000  -1.369344  -0.000000   0.000000
   24  H  2  Z   -0.000000  -1.008107  -0.000000  -0.000000   5.886252
   25  H  2 XX   -0.000000   0.016567  -0.000000  -0.000000   0.128525
   26  H  2 YY   -0.000000   0.016567  -0.000000  -0.000000   0.128525
   27  H  2 ZZ   -0.000000   0.098831  -0.000000  -0.000000  -0.334248
   28  H  2 XY   -0.000000  -0.000000  -0.000000  -0.000000   0.000000
   29  H  2 XZ    0.010025  -0.000000  -0.000000   0.094938   0.000000
   30  H  2 YZ   -0.000000  -0.000000   0.094938  -0.000000   0.000000

                     11         12         13         14         15
                    1.6548     2.0089     3.1728     3.1728     3.3966
                     AG         B1U        AG         B1G        B2U 
    1  H  1  S   -1.013831  -1.136890   0.000000   0.000000  -0.000000
    2  H  1  S    2.195624   4.092316   0.000000   0.000000  -0.000000
    3  H  1  S   -0.606842  -1.677657   0.000000   0.000000  -0.000000
    4  H  1  X   -0.000000   0.000000   0.000000   0.000000  -0.000000
    5  H  1  Y   -0.000000   0.000000   0.000000   0.000000   0.567493
    6  H  1  Z   -0.027791   0.145301   0.000000   0.000000  -0.000000
    7  H  1  X   -0.000000   0.000000   0.000000   0.000000  -0.000000
    8  H  1  Y   -0.000000   0.000000   0.000000   0.000000  -0.349110
    9  H  1  Z    0.328564   0.405685   0.000000   0.000000  -0.000000
   10  H  1 XX   -0.517515  -0.558309  -0.531032   0.000000  -0.000000
   11  H  1 YY   -0.517515  -0.558309   0.531032   0.000000  -0.000000
   12  H  1 ZZ   -0.533860  -0.368080   0.000000   0.000000  -0.000000
   13  H  1 XY   -0.000000   0.000000   0.000000   0.613183  -0.000000
   14  H  1 XZ   -0.000000   0.000000   0.000000   0.000000  -0.000000
   15  H  1 YZ   -0.000000   0.000000   0.000000   0.000000   0.346970
   16  H  2  S   -1.013831   1.136890   0.000000   0.000000  -0.000000
   17  H  2  S    2.195624  -4.092316   0.000000   0.000000  -0.000000
   18  H  2  S   -0.606842   1.677657   0.000000   0.000000  -0.000000
   19  H  2  X   -0.000000   0.000000   0.000000   0.000000  -0.000000
   20  H  2  Y   -0.000000   0.000000   0.000000   0.000000   0.567493
   21  H  2  Z    0.027791   0.145301   0.000000   0.000000  -0.000000
   22  H  2  X   -0.000000   0.000000   0.000000   0.000000  -0.000000
   23  H  2  Y   -0.000000   0.000000   0.000000   0.000000  -0.349110
   24  H  2  Z   -0.328564   0.405685   0.000000   0.000000  -0.000000
   25  H  2 XX   -0.517515   0.558309  -0.531032   0.000000  -0.000000
   26  H  2 YY   -0.517515   0.558309   0.531032   0.000000  -0.000000
   27  H  2 ZZ   -0.533860   0.368080   0.000000   0.000000  -0.000000
   28  H  2 XY   -0.000000   0.000000   0.000000   0.613183  -0.000000
   29  H  2 XZ   -0.000000   0.000000   0.000000   0.000000  -0.000000
   30  H  2 YZ   -0.000000   0.000000   0.000000   0.000000  -0.346970

                     16         17         18         19         20
                    3.3966     3.6304     3.9143     3.9143     4.0570
                     B3U        AG         B3G        B2G        B1U 
    1  H  1  S   -0.000000   0.105297   0.000000   0.000000   0.000000
    2  H  1  S   -0.000000   0.539808   0.000000   0.000000   0.000000
    3  H  1  S   -0.000000  -0.188752   0.000000   0.000000   0.000000
    4  H  1  X    0.567493   0.000000   0.000000  -0.557948   0.000000
    5  H  1  Y   -0.000000   0.000000  -0.557948   0.000000   0.000000
    6  H  1  Z   -0.000000   0.837897   0.000000   0.000000   0.000000
    7  H  1  X   -0.349110   0.000000   0.000000   1.089690   0.000000
    8  H  1  Y   -0.000000   0.000000   1.089690   0.000000   0.000000
    9  H  1  Z   -0.000000  -0.792021   0.000000   0.000000   0.000000
   10  H  1 XX   -0.000000  -0.002157   0.000000   0.000000  -0.748027
   11  H  1 YY   -0.000000  -0.002157   0.000000   0.000000   0.748027
   12  H  1 ZZ   -0.000000  -0.448021   0.000000   0.000000   0.000000
   13  H  1 XY   -0.000000   0.000000   0.000000   0.000000   0.000000
   14  H  1 XZ    0.346970   0.000000   0.000000   0.779000   0.000000
   15  H  1 YZ   -0.000000   0.000000   0.779000   0.000000   0.000000
   16  H  2  S   -0.000000   0.105297   0.000000   0.000000   0.000000
   17  H  2  S   -0.000000   0.539808   0.000000   0.000000   0.000000
   18  H  2  S   -0.000000  -0.188752   0.000000   0.000000   0.000000
   19  H  2  X    0.567493   0.000000   0.000000   0.557948   0.000000
   20  H  2  Y   -0.000000   0.000000   0.557948   0.000000   0.000000
   21  H  2  Z   -0.000000  -0.837897   0.000000   0.000000   0.000000
   22  H  2  X   -0.349110   0.000000   0.000000  -1.089690   0.000000
   23  H  2  Y   -0.000000   0.000000  -1.089690   0.000000   0.000000
   24  H  2  Z   -0.000000   0.792021   0.000000   0.000000   0.000000
   25  H  2 XX   -0.000000  -0.002157   0.000000   0.000000   0.748027
   26  H  2 YY   -0.000000  -0.002157   0.000000   0.000000  -0.748027
   27  H  2 ZZ   -0.000000  -0.448021   0.000000   0.000000   0.000000
   28  H  2 XY   -0.000000   0.000000   0.000000   0.000000   0.000000
   29  H  2 XZ   -0.346970   0.000000   0.000000   0.779000   0.000000
   30  H  2 YZ   -0.000000   0.000000   0.779000   0.000000   0.000000

                     21         22         23         24         25
                    4.0570     4.0905     4.0905     4.2685     4.5274
                     AU         B3U        B2U        B1U        AG  
    1  H  1  S   -0.000000   0.000000   0.000000   0.771205  -0.120805
    2  H  1  S   -0.000000   0.000000   0.000000   3.889695   1.772322
    3  H  1  S   -0.000000   0.000000   0.000000   0.803260  -0.326590
    4  H  1  X   -0.000000   0.676604   0.000000  -0.000000  -0.000000
    5  H  1  Y   -0.000000   0.000000   0.676604  -0.000000  -0.000000
    6  H  1  Z   -0.000000   0.000000   0.000000   0.228140  -0.112562
    7  H  1  X   -0.000000  -0.261611   0.000000  -0.000000  -0.000000
    8  H  1  Y   -0.000000   0.000000  -0.261611  -0.000000  -0.000000
    9  H  1  Z   -0.000000   0.000000   0.000000   3.200466   0.439128
   10  H  1 XX   -0.000000   0.000000   0.000000   0.287151  -1.094266
   11  H  1 YY   -0.000000   0.000000   0.000000   0.287151  -1.094266
   12  H  1 ZZ   -0.000000   0.000000   0.000000   1.801947  -0.247224
   13  H  1 XY    0.863747   0.000000   0.000000  -0.000000  -0.000000
   14  H  1 XZ   -0.000000  -0.536925   0.000000  -0.000000  -0.000000
   15  H  1 YZ   -0.000000   0.000000  -0.536925  -0.000000  -0.000000
   16  H  2  S   -0.000000   0.000000   0.000000  -0.771205  -0.120805
   17  H  2  S   -0.000000   0.000000   0.000000  -3.889695   1.772322
   18  H  2  S   -0.000000   0.000000   0.000000  -0.803260  -0.326590
   19  H  2  X   -0.000000   0.676604   0.000000  -0.000000  -0.000000
   20  H  2  Y   -0.000000   0.000000   0.676604  -0.000000  -0.000000
   21  H  2  Z   -0.000000   0.000000   0.000000   0.228140   0.112562
   22  H  2  X   -0.000000  -0.261611   0.000000  -0.000000  -0.000000
   23  H  2  Y   -0.000000   0.000000  -0.261611  -0.000000  -0.000000
   24  H  2  Z   -0.000000   0.000000   0.000000   3.200466  -0.439128
   25  H  2 XX   -0.000000   0.000000   0.000000  -0.287151  -1.094266
   26  H  2 YY   -0.000000   0.000000   0.000000  -0.287151  -1.094266
   27  H  2 ZZ   -0.000000   0.000000   0.000000  -1.801947  -0.247224
   28  H  2 XY   -0.863747   0.000000   0.000000  -0.000000  -0.000000
   29  H  2 XZ   -0.000000   0.536925   0.000000  -0.000000  -0.000000
   30  H  2 YZ   -0.000000   0.000000   0.536925  -0.000000  -0.000000

                     26         27         28         29         30
                    4.9067     5.6311     5.6311     5.8686     8.6127
                     B1U        B3G        B2G        AG         B1U 
    1  H  1  S    0.283448   0.000000   0.000000  -1.108632   2.228237
    2  H  1  S    5.912980   0.000000   0.000000  -0.239465   2.849734
    3  H  1  S   -0.743504   0.000000   0.000000   0.084995   0.566114
    4  H  1  X   -0.000000   0.000000   0.968222   0.000000   0.000000
    5  H  1  Y   -0.000000   0.968222   0.000000   0.000000   0.000000
    6  H  1  Z   -0.186317   0.000000   0.000000  -0.094706   2.755672
    7  H  1  X   -0.000000   0.000000   0.439126   0.000000   0.000000
    8  H  1  Y   -0.000000   0.439126   0.000000   0.000000   0.000000
    9  H  1  Z    2.037078   0.000000   0.000000   0.582869   2.470234
   10  H  1 XX   -1.055626   0.000000   0.000000  -0.151078   0.287119
   11  H  1 YY   -1.055626   0.000000   0.000000  -0.151078   0.287119
   12  H  1 ZZ   -0.271963   0.000000   0.000000   1.290671   2.581243
   13  H  1 XY   -0.000000   0.000000   0.000000   0.000000   0.000000
   14  H  1 XZ   -0.000000   0.000000   1.308165   0.000000   0.000000
   15  H  1 YZ   -0.000000   1.308165   0.000000   0.000000   0.000000
   16  H  2  S   -0.283448   0.000000   0.000000  -1.108632  -2.228237
   17  H  2  S   -5.912980   0.000000   0.000000  -0.239465  -2.849734
   18  H  2  S    0.743504   0.000000   0.000000   0.084995  -0.566114
   19  H  2  X   -0.000000   0.000000  -0.968222   0.000000   0.000000
   20  H  2  Y   -0.000000  -0.968222   0.000000   0.000000   0.000000
   21  H  2  Z   -0.186317   0.000000   0.000000   0.094706   2.755672
   22  H  2  X   -0.000000   0.000000  -0.439126   0.000000   0.000000
   23  H  2  Y   -0.000000  -0.439126   0.000000   0.000000   0.000000
   24  H  2  Z    2.037078   0.000000   0.000000  -0.582869   2.470234
   25  H  2 XX    1.055626   0.000000   0.000000  -0.151078  -0.287119
   26  H  2 YY    1.055626   0.000000   0.000000  -0.151078  -0.287119
   27  H  2 ZZ    0.271963   0.000000   0.000000   1.290671  -2.581243
   28  H  2 XY   -0.000000   0.000000   0.000000   0.000000   0.000000
   29  H  2 XZ   -0.000000   0.000000   1.308165   0.000000   0.000000
   30  H  2 YZ   -0.000000   1.308165   0.000000   0.000000   0.000000
 ...... END OF RHF CALCULATION ......
 STEP CPU TIME =     0.01 TOTAL CPU TIME =        0.1 (    0.0 MIN)
 TOTAL WALL CLOCK TIME=        0.7 SECONDS, CPU UTILIZATION IS   8.82%

     ----------------------------------------------------------------
     PROPERTY VALUES FOR THE RHF   SELF-CONSISTENT FIELD WAVEFUNCTION
     ----------------------------------------------------------------

          -----------------
          ENERGY COMPONENTS
          -----------------

         WAVEFUNCTION NORMALIZATION =       1.0000000000

                ONE ELECTRON ENERGY =      -2.4718834051
                TWO ELECTRON ENERGY =       0.6493138918
           NUCLEAR REPULSION ENERGY =       0.6902568860
                                      ------------------
                       TOTAL ENERGY =      -1.1323126273

 ELECTRON-ELECTRON POTENTIAL ENERGY =       0.6493138918
  NUCLEUS-ELECTRON POTENTIAL ENERGY =      -3.5694344871
   NUCLEUS-NUCLEUS POTENTIAL ENERGY =       0.6902568860
                                      ------------------
             TOTAL POTENTIAL ENERGY =      -2.2298637093
               TOTAL KINETIC ENERGY =       1.0975510820
                 VIRIAL RATIO (V/T) =       2.0316719157

  ...... PI ENERGY ANALYSIS ......

 ENERGY ANALYSIS:
            FOCK ENERGY=     -1.1732556152
          BARE H ENERGY=     -2.4718834051
     ELECTRONIC ENERGY =     -1.8225695101
         KINETIC ENERGY=      1.0975510820
          N-N REPULSION=      0.6902568860
           TOTAL ENERGY=     -1.1323126241
        SIGMA PART(1+2)=     -1.8225695101
               (K,V1,2)=      1.0975510820     -3.5694344871      0.6493138950
           PI PART(1+2)=      0.0000000000
               (K,V1,2)=      0.0000000000      0.0000000000      0.0000000000
  SIGMA SKELETON, ERROR=     -1.1323126241     -0.0000000000
             MIXED PART= 0.00000E+00 0.00000E+00 0.00000E+00 0.00000E+00
 ...... END OF PI ENERGY ANALYSIS ......
 MEMORY ASSIGNEMENT
 I10, I20, I21, I30, I31, I40, I41, I60 =
****************************************************************
 LAST = ********

          ---------------------------------------
          MULLIKEN AND LOWDIN POPULATION ANALYSES
          ---------------------------------------
 MEMORY ASSIGNMENT
 I10, I30, I40, I50, I60, I70, I41, I51, I61, I71 =
********************************************************************************
 LAST = ********

          ----- MULLIKEN ATOMIC OVERLAP POPULATIONS -----
          (OFF-DIAGONAL ELEMENTS NEED TO BE MULTIPLIED BY 2)

                      1          2          3          4          5

    1  H  1  S    0.066323
    2  H  1  S    0.074699   0.168660
    3  H  1  S    0.018742   0.063122   0.037961
    4  H  1  X    0.000000   0.000000   0.000000   0.000000
    5  H  1  Y    0.000000   0.000000   0.000000   0.000000   0.000000
    6  H  1  Z    0.000000   0.000000   0.000000   0.000000   0.000000
    7  H  1  X    0.000000   0.000000   0.000000   0.000000   0.000000
    8  H  1  Y    0.000000   0.000000   0.000000   0.000000   0.000000
    9  H  1  Z   -0.000000   0.000000  -0.000000   0.000000   0.000000
   10  H  1 XX   -0.000417  -0.000929  -0.000288   0.000000   0.000000
   11  H  1 YY   -0.000417  -0.000929  -0.000288   0.000000   0.000000
   12  H  1 ZZ   -0.000106  -0.000236  -0.000073   0.000000   0.000000
   13  H  1 XY    0.000000   0.000000   0.000000   0.000000   0.000000
   14  H  1 XZ    0.000000   0.000000   0.000000   0.000000   0.000000
   15  H  1 YZ    0.000000   0.000000   0.000000   0.000000   0.000000
   16  H  2  S    0.016374   0.043386   0.015360   0.000000   0.000000
   17  H  2  S    0.043386   0.119819   0.053581   0.000000   0.000000
   18  H  2  S    0.015360   0.053581   0.034082   0.000000   0.000000
   19  H  2  X    0.000000   0.000000   0.000000   0.000000   0.000000
   20  H  2  Y    0.000000   0.000000   0.000000   0.000000   0.000000
   21  H  2  Z    0.001664   0.001765   0.000223   0.000000   0.000000
   22  H  2  X    0.000000   0.000000   0.000000   0.000000   0.000000
   23  H  2  Y    0.000000   0.000000   0.000000   0.000000   0.000000
   24  H  2  Z    0.003780   0.006055   0.001189   0.000000   0.000000
   25  H  2 XX   -0.000127  -0.000551  -0.000237   0.000000   0.000000
   26  H  2 YY   -0.000127  -0.000551  -0.000237   0.000000   0.000000
   27  H  2 ZZ   -0.000128  -0.000185  -0.000062   0.000000   0.000000
   28  H  2 XY    0.000000   0.000000   0.000000   0.000000   0.000000
   29  H  2 XZ    0.000000   0.000000   0.000000  -0.000000   0.000000
   30  H  2 YZ    0.000000   0.000000   0.000000   0.000000  -0.000000

                      6          7          8          9         10

    6  H  1  Z    0.000281
    7  H  1  X    0.000000   0.000000
    8  H  1  Y    0.000000   0.000000   0.000000
    9  H  1  Z    0.000269   0.000000   0.000000   0.000681
   10  H  1 XX   -0.000000   0.000000   0.000000  -0.000000   0.000011
   11  H  1 YY   -0.000000   0.000000   0.000000  -0.000000   0.000004
   12  H  1 ZZ    0.000000   0.000000   0.000000  -0.000000   0.000001
   13  H  1 XY    0.000000   0.000000   0.000000   0.000000   0.000000
   14  H  1 XZ    0.000000   0.000000   0.000000   0.000000   0.000000
   15  H  1 YZ    0.000000   0.000000   0.000000   0.000000   0.000000
   16  H  2  S    0.001664   0.000000   0.000000   0.003780  -0.000127
   17  H  2  S    0.001765   0.000000   0.000000   0.006055  -0.000551
   18  H  2  S    0.000223   0.000000   0.000000   0.001189  -0.000237
   19  H  2  X    0.000000   0.000000   0.000000   0.000000   0.000000
   20  H  2  Y    0.000000   0.000000   0.000000   0.000000   0.000000
   21  H  2  Z    0.000126   0.000000   0.000000   0.000039  -0.000011
   22  H  2  X    0.000000   0.000000   0.000000   0.000000   0.000000
   23  H  2  Y    0.000000   0.000000   0.000000   0.000000   0.000000
   24  H  2  Z    0.000039   0.000000   0.000000  -0.000084  -0.000044
   25  H  2 XX   -0.000011   0.000000   0.000000  -0.000044   0.000004
   26  H  2 YY   -0.000011   0.000000   0.000000  -0.000044   0.000001
   27  H  2 ZZ   -0.000005   0.000000   0.000000  -0.000008   0.000001
   28  H  2 XY    0.000000   0.000000   0.000000   0.000000   0.000000
   29  H  2 XZ    0.000000  -0.000000   0.000000   0.000000   0.000000
   30  H  2 YZ    0.000000   0.000000  -0.000000   0.000000   0.000000

                     11         12         13         14         15

   11  H  1 YY    0.000011
   12  H  1 ZZ    0.000001   0.000001
   13  H  1 XY    0.000000   0.000000   0.000000
   14  H  1 XZ    0.000000   0.000000   0.000000   0.000000
   15  H  1 YZ    0.000000   0.000000   0.000000   0.000000   0.000000
   16  H  2  S   -0.000127  -0.000128   0.000000   0.000000   0.000000
   17  H  2  S   -0.000551  -0.000185   0.000000   0.000000   0.000000
   18  H  2  S   -0.000237  -0.000062   0.000000   0.000000   0.000000
   19  H  2  X    0.000000   0.000000   0.000000   0.000000   0.000000
   20  H  2  Y    0.000000   0.000000   0.000000   0.000000   0.000000
   21  H  2  Z   -0.000011  -0.000005   0.000000   0.000000   0.000000
   22  H  2  X    0.000000   0.000000   0.000000   0.000000   0.000000
   23  H  2  Y    0.000000   0.000000   0.000000   0.000000   0.000000
   24  H  2  Z   -0.000044  -0.000008   0.000000   0.000000   0.000000
   25  H  2 XX    0.000001   0.000001   0.000000   0.000000   0.000000
   26  H  2 YY    0.000004   0.000001   0.000000   0.000000   0.000000
   27  H  2 ZZ    0.000001   0.000000   0.000000   0.000000   0.000000
   28  H  2 XY    0.000000   0.000000   0.000000   0.000000   0.000000
   29  H  2 XZ    0.000000   0.000000   0.000000  -0.000000   0.000000
   30  H  2 YZ    0.000000   0.000000   0.000000   0.000000  -0.000000

                     16         17         18         19         20

   16  H  2  S    0.066323
   17  H  2  S    0.074699   0.168660
   18  H  2  S    0.018742   0.063122   0.037961
   19  H  2  X    0.000000   0.000000   0.000000   0.000000
   20  H  2  Y    0.000000   0.000000   0.000000   0.000000   0.000000
   21  H  2  Z   -0.000000  -0.000000  -0.000000   0.000000   0.000000
   22  H  2  X    0.000000   0.000000   0.000000   0.000000   0.000000
   23  H  2  Y    0.000000   0.000000   0.000000   0.000000   0.000000
   24  H  2  Z   -0.000000   0.000000  -0.000000   0.000000   0.000000
   25  H  2 XX   -0.000417  -0.000929  -0.000288   0.000000   0.000000
   26  H  2 YY   -0.000417  -0.000929  -0.000288   0.000000   0.000000
   27  H  2 ZZ   -0.000106  -0.000236  -0.000073   0.000000   0.000000
   28  H  2 XY    0.000000   0.000000   0.000000   0.000000   0.000000
   29  H  2 XZ    0.000000   0.000000   0.000000   0.000000   0.000000
   30  H  2 YZ    0.000000   0.000000   0.000000   0.000000   0.000000

                     21         22         23         24         25

   21  H  2  Z    0.000281
   22  H  2  X    0.000000   0.000000
   23  H  2  Y    0.000000   0.000000   0.000000
   24  H  2  Z    0.000269   0.000000   0.000000   0.000681
   25  H  2 XX    0.000000   0.000000   0.000000  -0.000000   0.000011
   26  H  2 YY    0.000000   0.000000   0.000000  -0.000000   0.000004
   27  H  2 ZZ    0.000000   0.000000   0.000000  -0.000000   0.000001
   28  H  2 XY    0.000000   0.000000   0.000000   0.000000   0.000000
   29  H  2 XZ    0.000000  -0.000000   0.000000   0.000000   0.000000
   30  H  2 YZ    0.000000   0.000000  -0.000000   0.000000   0.000000

                     26         27         28         29         30

   26  H  2 YY    0.000011
   27  H  2 ZZ    0.000001   0.000001
   28  H  2 XY    0.000000   0.000000   0.000000
   29  H  2 XZ    0.000000   0.000000   0.000000   0.000000
   30  H  2 YZ    0.000000   0.000000   0.000000   0.000000   0.000000

               ----- POPULATIONS IN EACH AO -----
                             MULLIKEN      LOWDIN
              1  H  1  S      0.23901     0.17521
              2  H  1  S      0.52771     0.29806
              3  H  1  S      0.22308     0.24453
              4  H  1  X      0.00000     0.00000
              5  H  1  Y      0.00000     0.00000
              6  H  1  Z      0.00434     0.00510
              7  H  1  X      0.00000     0.00000
              8  H  1  Y      0.00000     0.00000
              9  H  1  Z      0.01183     0.02313
             10  H  1 XX     -0.00258     0.06945
             11  H  1 YY     -0.00258     0.06945
             12  H  1 ZZ     -0.00080     0.11507
             13  H  1 XY      0.00000     0.00000
             14  H  1 XZ      0.00000     0.00000
             15  H  1 YZ      0.00000     0.00000
             16  H  2  S      0.23901     0.17521
             17  H  2  S      0.52771     0.29806
             18  H  2  S      0.22308     0.24453
             19  H  2  X      0.00000     0.00000
             20  H  2  Y      0.00000     0.00000
             21  H  2  Z      0.00434     0.00510
             22  H  2  X      0.00000     0.00000
             23  H  2  Y      0.00000     0.00000
             24  H  2  Z      0.01183     0.02313
             25  H  2 XX     -0.00258     0.06945
             26  H  2 YY     -0.00258     0.06945
             27  H  2 ZZ     -0.00080     0.11507
             28  H  2 XY      0.00000     0.00000
             29  H  2 XZ      0.00000     0.00000
             30  H  2 YZ      0.00000     0.00000

          ----- MULLIKEN ATOMIC OVERLAP POPULATIONS -----
          (OFF-DIAGONAL ELEMENTS NEED TO BE MULTIPLIED BY 2)

             1           2

    1    0.5802415
    2    0.4197585   0.5802415

          TOTAL MULLIKEN AND LOWDIN ATOMIC POPULATIONS
       ATOM         MULL.POP.                    LOW.POP.

          TOTAL MULLIKEN AND LOWDIN ATOMIC POPULATIONS
       ATOM         MULL.POP.    CHARGE          LOW.POP.     CHARGE
    1 H             1.000000                     1.000000
    1 H             1.000000    0.000000         1.000000    0.000000
    2 H             1.000000                     1.000000
    2 H             1.000000    0.000000         1.000000    0.000000

          ---------------------
          ELECTROSTATIC MOMENTS
          ---------------------

 POINT   1           X           Y           Z (BOHR)    CHARGE
                 0.000000    0.000000    0.000000        0.00 (A.U.)
         DX          DY          DZ         /D/  (DEBYE)
     0.000000    0.000000    0.000000    0.000000
 ...... END OF PROPERTY EVALUATION ......
 STEP CPU TIME =     0.01 TOTAL CPU TIME =        0.1 (    0.0 MIN)
 TOTAL WALL CLOCK TIME=        0.7 SECONDS, CPU UTILIZATION IS   9.86%

 GUGA CI OPTIONS      NRNFG     NPFLG
 ------------------------------------

 -DRT- TABLE          1         0
 TRANSFORMATION       1         2
 ENERGY MATRIX        1         0
 DIAGONALIZATION      1         0
 1E-DENSITY MATRIX    1         0
 2E-DENSITY MATRIX    0         0
 LAGRANGIAN MATRIX    0         0
------------------------------------

 -DRT- TABLE          0         0
 TRANSFORMATION   

          -----------------------     ----------------------------
          GUGA DISTINCT ROW TABLE     WRITTEN BY B.R.BROOKS,P.SAXE
          -----------------------     ----------------------------

      GROUP=D2H          NPRT=       0
       FORS=       F   INTACT=       F
       FOCI=       F   MXNINT=   50000
       SOCI=       F   MXNEME=   10000
     IEXCIT=       2

      -CORE-    -INTERNAL-  -EXTERNAL-
     NFZC=   0   NDOC=   1   NEXT=   0
     NMCC=   0   NAOS=   0   NFZV=   0
                 NBOS=   0
                 NALP=   0
                 NVAL=  29

 THE MAXIMUM ELECTRON EXCITATION WILL BE   2

 SYMMETRIES FOR THE   0 CORE,  30 ACTIVE,   0 EXTERNAL MO-S ARE
   ACTIVE= AG    B1U   AG    B1U   B2U   B3U   AG    B3G   B2G   B1U 
           DOC   VAL   VAL   VAL   VAL   VAL   VAL   VAL   VAL   VAL 
   ACTIVE= AG    B1U   AG    B1G   B2U   B3U   AG    B3G   B2G   B1U 
           VAL   VAL   VAL   VAL   VAL   VAL   VAL   VAL   VAL   VAL 
   ACTIVE= AU    B3U   B2U   B1U   AG    B1U   B3G   B2G   AG    B1U 
           VAL   VAL   VAL   VAL   VAL   VAL   VAL   VAL   VAL   VAL 

 MOLECULAR CHARGE          =    0
 NUMBER OF ALPHA ELECTRONS =    1
 NUMBER OF  BETA ELECTRONS =    1

 THE ELECTRONIC STATE IS  1-AG  

 THE DISTINCT ROW TABLE HAS       104 ROWS.
  THE WAVEFUNCTION CONTAINS        98 WALKS (CSF-S).

 TOTAL NUMBER OF INTEGRALS =      16923
 NUMBER OF INTEGRALS/GROUP =      16923
 NUMBER OF INTEGRAL GROUPS =          1
 MAXIMUM RECORD SIZES ARE     500 FOR UNIT 11      98 FOR UNIT 12
                            30001 FOR UNIT 15   30001 FOR UNIT 16
 ...... END OF -DRT- GENERATION ...... 
 STEP CPU TIME =     0.61 TOTAL CPU TIME =        0.7 (    0.0 MIN)
 TOTAL WALL CLOCK TIME=        1.4 SECONDS, CPU UTILIZATION IS  48.92%

     --------------------------------------------
     PARTIAL TWO ELECTRON INTEGRAL TRANSFORMATION
     --------------------------------------------

 NUMBER OF CORE MOLECULAR ORBITALS     =    0
 NUMBER OF OCCUPIED MOLECULAR ORBITALS =   30
 TOTAL NUMBER OF MOLECULAR ORBITALS    =   30
 TOTAL NUMBER OF ATOMIC ORBITALS       =   30
 THRESHOLD FOR KEEPING TRANSFORMED 2E- INTEGRALS = 1.000E-09
 AO INTEGRALS WILL BE READ IN FROM DISK...
 TRANSFORMATION VECTORS

             1           2           3           4           5

    1   -0.1821026   0.1164626  -0.0332412  -0.0508823   0.0000000
    2   -0.2903964  -0.3267135   1.0717524   2.1879366   0.0000000
    3   -0.1377694   2.3217437  -0.9534569  -2.3752798   0.0000000
    4    0.0000000   0.0000000   0.0000000   0.0000000   0.0000000
    5    0.0000000   0.0000000   0.0000000   0.0000000   0.0591147
    6   -0.0118617  -0.0081673   0.0204424  -0.0079072   0.0000000
    7    0.0000000   0.0000000   0.0000000   0.0000000   0.0000000
    8    0.0000000   0.0000000   0.0000000   0.0000000  -0.5816290
    9   -0.0184571  -0.0422882  -0.0239880  -0.0420348   0.0000000
   10    0.0023180   0.0374502  -0.0980927  -0.1342196   0.0000000
   11    0.0023180   0.0374502  -0.0980927  -0.1342196   0.0000000
   12    0.0005887   0.0360763  -0.0985484  -0.1274815   0.0000000
   13    0.0000000   0.0000000   0.0000000   0.0000000   0.0000000
   14    0.0000000   0.0000000   0.0000000   0.0000000   0.0000000
   15    0.0000000   0.0000000   0.0000000   0.0000000   0.0100248
   16   -0.1821026  -0.1164626  -0.0332412   0.0508823   0.0000000
   17   -0.2903964   0.3267135   1.0717524  -2.1879366   0.0000000
   18   -0.1377694  -2.3217437  -0.9534569   2.3752798   0.0000000
   19    0.0000000   0.0000000   0.0000000   0.0000000   0.0000000
   20    0.0000000   0.0000000   0.0000000   0.0000000   0.0591147
   21    0.0118617  -0.0081673  -0.0204424  -0.0079072   0.0000000
   22    0.0000000   0.0000000   0.0000000   0.0000000   0.0000000
   23    0.0000000   0.0000000   0.0000000   0.0000000  -0.5816290
   24    0.0184571  -0.0422882   0.0239880  -0.0420348   0.0000000
   25    0.0023180  -0.0374502  -0.0980927   0.1342196   0.0000000
   26    0.0023180  -0.0374502  -0.0980927   0.1342196   0.0000000
   27    0.0005887  -0.0360763  -0.0985484   0.1274815   0.0000000
   28    0.0000000   0.0000000   0.0000000   0.0000000   0.0000000
   29    0.0000000   0.0000000   0.0000000   0.0000000   0.0000000
   30    0.0000000   0.0000000   0.0000000   0.0000000  -0.0100248

[...]
   10  H  1 XX    0.310963   0.000000   0.000000   0.000000   0.000000
   11  H  1 YY    0.310963   0.000000   0.000000   0.000000   0.000000
   12  H  1 ZZ    0.762854   0.000000   0.000000   0.000000   0.000000
   13  H  1 XY    0.000000   0.000000   0.000000   0.000000   0.000000
   14  H  1 XZ    0.000000   0.000000  -0.562381   0.000000  -0.383490
   15  H  1 YZ    0.000000  -0.562381   0.000000  -0.383490   0.000000
   16  H  2  S   -0.662006   0.000000   0.000000   0.000000   0.000000
   17  H  2  S   -0.113797   0.000000   0.000000   0.000000   0.000000
   18  H  2  S   -0.249719   0.000000   0.000000   0.000000   0.000000
   19  H  2  X    0.000000   0.000000   0.630639   0.000000   0.972291
   20  H  2  Y    0.000000   0.630639   0.000000   0.972291   0.000000
   21  H  2  Z   -0.304039   0.000000   0.000000   0.000000   0.000000
   22  H  2  X    0.000000   0.000000  -0.244999   0.000000  -1.029130
   23  H  2  Y    0.000000  -0.244999   0.000000  -1.029130   0.000000
   24  H  2  Z    0.561843   0.000000   0.000000   0.000000   0.000000
   25  H  2 XX    0.310963   0.000000   0.000000   0.000000   0.000000
   26  H  2 YY    0.310963   0.000000   0.000000   0.000000   0.000000
   27  H  2 ZZ    0.762854   0.000000   0.000000   0.000000   0.000000
   28  H  2 XY    0.000000   0.000000   0.000000   0.000000   0.000000
   29  H  2 XZ    0.000000   0.000000   0.562381   0.000000  -0.383490
   30  H  2 YZ    0.000000   0.562381   0.000000  -0.383490   0.000000

                     21         22         23         24         25
                    0.0000     0.0000     0.0000     0.0000     0.0000
                     B1U        AU         B1U        AG         B3G 
    1  H  1  S    0.828274  -0.000000  -0.000000  -1.042142   0.000000
    2  H  1  S    1.183478  -0.000000  -0.000000   2.277919   0.000000
    3  H  1  S    0.932919  -0.000000  -0.000000  -0.625062   0.000000
    4  H  1  X   -0.000000  -0.000000   0.000000  -0.000000   0.000000
    5  H  1  Y   -0.000000  -0.000000   0.000000  -0.000000   0.291803
    6  H  1  Z    1.151914  -0.000000  -0.000000  -0.279433   0.000000
    7  H  1  X   -0.000000  -0.000000   0.000000  -0.000000   0.000000
    8  H  1  Y   -0.000000  -0.000000   0.000000  -0.000000   1.297953
    9  H  1  Z    0.240115  -0.000000  -0.000000   0.822714   0.000000
   10  H  1 XX   -0.592705  -0.000000   0.748027  -1.117661   0.000000
   11  H  1 YY   -0.592705  -0.000000  -0.748027  -1.117661   0.000000
   12  H  1 ZZ    0.454351  -0.000000  -0.000000   0.225319   0.000000
   13  H  1 XY   -0.000000   0.863747   0.000000  -0.000000   0.000000
   14  H  1 XZ   -0.000000  -0.000000   0.000000  -0.000000   0.000000
   15  H  1 YZ   -0.000000  -0.000000   0.000000  -0.000000   1.475814
   16  H  2  S   -0.828274  -0.000000   0.000000  -1.042142   0.000000
   17  H  2  S   -1.183478  -0.000000   0.000000   2.277919   0.000000
   18  H  2  S   -0.932919  -0.000000   0.000000  -0.625062   0.000000
   19  H  2  X   -0.000000  -0.000000   0.000000  -0.000000   0.000000
   20  H  2  Y   -0.000000  -0.000000   0.000000  -0.000000  -0.291803
   21  H  2  Z    1.151914  -0.000000  -0.000000   0.279433   0.000000
   22  H  2  X   -0.000000  -0.000000   0.000000  -0.000000   0.000000
   23  H  2  Y   -0.000000  -0.000000   0.000000  -0.000000  -1.297953
   24  H  2  Z    0.240115  -0.000000  -0.000000  -0.822714   0.000000
   25  H  2 XX    0.592705  -0.000000  -0.748027  -1.117661   0.000000
   26  H  2 YY    0.592705  -0.000000   0.748027  -1.117661   0.000000
   27  H  2 ZZ   -0.454351  -0.000000   0.000000   0.225319   0.000000
   28  H  2 XY   -0.000000  -0.863747   0.000000  -0.000000   0.000000
   29  H  2 XZ   -0.000000  -0.000000   0.000000  -0.000000   0.000000
   30  H  2 YZ   -0.000000  -0.000000   0.000000  -0.000000   1.475814

                     26         27         28         29         30
                    0.0000     0.0000     0.0000     0.0000     0.0000
                     B2G        AG         B1U        B1U        B1U 
    1  H  1  S    0.000000   0.175843  -0.698314   1.147400   1.865879
    2  H  1  S    0.000000   2.164700   9.371996  10.812123   0.398072
    3  H  1  S    0.000000  -0.840982   0.350609  -1.897774   3.238070
    4  H  1  X    0.291803   0.000000  -0.000000  -0.000000   0.000000
    5  H  1  Y    0.000000   0.000000  -0.000000  -0.000000   0.000000
    6  H  1  Z    0.000000   0.545164  -1.249637   1.600614   1.231047
    7  H  1  X    1.297953   0.000000  -0.000000  -0.000000   0.000000
    8  H  1  Y    0.000000   0.000000  -0.000000  -0.000000   0.000000
    9  H  1  Z    0.000000  -0.934276   4.245502   5.232124   2.808997
   10  H  1 XX    0.000000  -0.313098  -0.639886  -0.268576   0.845643
   11  H  1 YY    0.000000  -0.313098  -0.639886  -0.268576   0.845643
   12  H  1 ZZ    0.000000  -1.258577  -0.829166   1.953438   2.352309
   13  H  1 XY    0.000000   0.000000  -0.000000  -0.000000   0.000000
   14  H  1 XZ    1.475814   0.000000  -0.000000  -0.000000   0.000000
   15  H  1 YZ    0.000000   0.000000  -0.000000  -0.000000   0.000000
   16  H  2  S    0.000000   0.175843   0.698314  -1.147400  -1.865879
   17  H  2  S    0.000000   2.164700  -9.371996 -10.812123  -0.398072
   18  H  2  S    0.000000  -0.840982  -0.350609   1.897774  -3.238070
   19  H  2  X   -0.291803   0.000000  -0.000000  -0.000000   0.000000
   20  H  2  Y    0.000000   0.000000  -0.000000  -0.000000   0.000000
   21  H  2  Z    0.000000  -0.545164  -1.249637   1.600614   1.231047
   22  H  2  X   -1.297953   0.000000  -0.000000  -0.000000   0.000000
   23  H  2  Y    0.000000   0.000000  -0.000000  -0.000000   0.000000
   24  H  2  Z    0.000000   0.934276   4.245502   5.232124   2.808997
   25  H  2 XX    0.000000  -0.313098   0.639886   0.268576  -0.845643
   26  H  2 YY    0.000000  -0.313098   0.639886   0.268576  -0.845643
   27  H  2 ZZ    0.000000  -1.258577   0.829166  -1.953438  -2.352309
   28  H  2 XY    0.000000   0.000000  -0.000000  -0.000000   0.000000
   29  H  2 XZ    1.475814   0.000000  -0.000000  -0.000000   0.000000
   30  H  2 YZ    0.000000   0.000000  -0.000000  -0.000000   0.000000
 ...... END OF DENSITY MATRIX CALCULATION ...... 
 STEP CPU TIME =     0.01 TOTAL CPU TIME =        0.8 (    0.0 MIN)
 TOTAL WALL CLOCK TIME=        2.2 SECONDS, CPU UTILIZATION IS  36.07%

     --------------------------------------------------------
     GUGA  CI PROPERTIES...FOR THE WAVEFUNCTION OF STATE    1
               USING THE EXPECTATION VALUE DENSITY
     --------------------------------------------------------

          -----------------
          ENERGY COMPONENTS
          -----------------

         WAVEFUNCTION NORMALIZATION =       1.0000000000

                ONE ELECTRON ENERGY =      -2.4415635403
                TWO ELECTRON ENERGY =       0.5792134595
           NUCLEAR REPULSION ENERGY =       0.6902568860
                                      ------------------
                       TOTAL ENERGY =      -1.1720931948

 ELECTRON-ELECTRON POTENTIAL ENERGY =       0.5792134595
  NUCLEUS-ELECTRON POTENTIAL ENERGY =      -3.5889045430
   NUCLEUS-NUCLEUS POTENTIAL ENERGY =       0.6902568860
                                      ------------------
             TOTAL POTENTIAL ENERGY =      -2.3194341975
               TOTAL KINETIC ENERGY =       1.1473410027
                 VIRIAL RATIO (V/T) =       2.0215735269
 MEMORY ASSIGNEMENT
 I10, I20, I21, I30, I31, I40, I41, I60 =
****************************************************************
 LAST = ********

          ---------------------------------------
          MULLIKEN AND LOWDIN POPULATION ANALYSES
          ---------------------------------------
 MEMORY ASSIGNMENT
 I10, I30, I40, I50, I60, I70, I41, I51, I61, I71 =
********************************************************************************
 LAST = ********

          ----- MULLIKEN ATOMIC OVERLAP POPULATIONS -----
          (OFF-DIAGONAL ELEMENTS NEED TO BE MULTIPLIED BY 2)

                      1          2          3          4          5

    1  H  1  S    0.072556
    2  H  1  S    0.078897   0.177911
    3  H  1  S    0.018014   0.061546   0.035706
    4  H  1  X    0.000000   0.000000   0.000000   0.000168
    5  H  1  Y    0.000000   0.000000   0.000000   0.000000   0.000168
    6  H  1  Z    0.000000   0.000000   0.000000   0.000000   0.000000
    7  H  1  X    0.000000   0.000000   0.000000   0.000175   0.000000
    8  H  1  Y    0.000000   0.000000   0.000000   0.000000   0.000175
    9  H  1  Z   -0.000000   0.000000  -0.000000   0.000000   0.000000
   10  H  1 XX   -0.000214  -0.000537  -0.000234   0.000000   0.000000
   11  H  1 YY   -0.000214  -0.000537  -0.000234   0.000000   0.000000
   12  H  1 ZZ   -0.000034  -0.000389  -0.000162   0.000000   0.000000
   13  H  1 XY    0.000000   0.000000   0.000000   0.000000   0.000000
   14  H  1 XZ    0.000000   0.000000   0.000000   0.000000   0.000000
   15  H  1 YZ    0.000000   0.000000   0.000000   0.000000   0.000000
   16  H  2  S    0.016334   0.041662   0.014282   0.000000   0.000000
   17  H  2  S    0.041662   0.112747   0.050099   0.000000   0.000000
   18  H  2  S    0.014282   0.050099   0.031494   0.000000   0.000000
   19  H  2  X    0.000000   0.000000   0.000000   0.000018   0.000000
   20  H  2  Y    0.000000   0.000000   0.000000   0.000000   0.000018
   21  H  2  Z    0.001842   0.001774   0.000188   0.000000   0.000000
   22  H  2  X    0.000000   0.000000   0.000000   0.000067   0.000000
   23  H  2  Y    0.000000   0.000000   0.000000   0.000000   0.000067
   24  H  2  Z    0.003432   0.005035   0.000861   0.000000   0.000000
   25  H  2 XX   -0.000121  -0.000591  -0.000233   0.000000   0.000000
   26  H  2 YY   -0.000121  -0.000591  -0.000233   0.000000   0.000000
   27  H  2 ZZ    0.000143  -0.000049  -0.000112   0.000000   0.000000
   28  H  2 XY    0.000000   0.000000   0.000000   0.000000   0.000000
   29  H  2 XZ    0.000000   0.000000   0.000000   0.000021   0.000000
   30  H  2 YZ    0.000000   0.000000   0.000000   0.000000   0.000021

                      6          7          8          9         10

    6  H  1  Z    0.000484
    7  H  1  X    0.000000   0.000907
    8  H  1  Y    0.000000   0.000000   0.000907
    9  H  1  Z    0.000322   0.000000   0.000000   0.000759
   10  H  1 XX   -0.000000   0.000000   0.000000  -0.000000   0.000063
   11  H  1 YY   -0.000000   0.000000   0.000000  -0.000000   0.000007
   12  H  1 ZZ   -0.000000   0.000000   0.000000   0.000000   0.000003
   13  H  1 XY    0.000000   0.000000   0.000000   0.000000   0.000000
   14  H  1 XZ    0.000000   0.000000   0.000000   0.000000   0.000000
   15  H  1 YZ    0.000000   0.000000   0.000000   0.000000   0.000000
   16  H  2  S    0.001842   0.000000   0.000000   0.003432  -0.000121
   17  H  2  S    0.001774   0.000000   0.000000   0.005035  -0.000591
   18  H  2  S    0.000188   0.000000   0.000000   0.000861  -0.000233
   19  H  2  X    0.000000   0.000067   0.000000   0.000000   0.000000
   20  H  2  Y    0.000000   0.000000   0.000067   0.000000   0.000000
   21  H  2  Z    0.000156   0.000000   0.000000   0.000037  -0.000000
   22  H  2  X    0.000000   0.000481   0.000000   0.000000   0.000000
   23  H  2  Y    0.000000   0.000000   0.000481   0.000000   0.000000
   24  H  2  Z    0.000037   0.000000   0.000000  -0.000063  -0.000003
   25  H  2 XX   -0.000000   0.000000   0.000000  -0.000003   0.000005
   26  H  2 YY   -0.000000   0.000000   0.000000  -0.000003  -0.000001
   27  H  2 ZZ    0.000019   0.000000   0.000000   0.000015   0.000012
   28  H  2 XY    0.000000   0.000000   0.000000   0.000000   0.000000
   29  H  2 XZ    0.000000   0.000039   0.000000   0.000000   0.000000
   30  H  2 YZ    0.000000   0.000000   0.000039   0.000000   0.000000

                     11         12         13         14         15

   11  H  1 YY    0.000063
   12  H  1 ZZ    0.000003   0.000083
   13  H  1 XY    0.000000   0.000000   0.000028
   14  H  1 XZ    0.000000   0.000000   0.000000   0.000040
   15  H  1 YZ    0.000000   0.000000   0.000000   0.000000   0.000040
   16  H  2  S   -0.000121   0.000143   0.000000   0.000000   0.000000
   17  H  2  S   -0.000591  -0.000049   0.000000   0.000000   0.000000
   18  H  2  S   -0.000233  -0.000112   0.000000   0.000000   0.000000
   19  H  2  X    0.000000   0.000000   0.000000   0.000021   0.000000
   20  H  2  Y    0.000000   0.000000   0.000000   0.000000   0.000021
   21  H  2  Z   -0.000000   0.000019   0.000000   0.000000   0.000000
   22  H  2  X    0.000000   0.000000   0.000000   0.000039   0.000000
   23  H  2  Y    0.000000   0.000000   0.000000   0.000000   0.000039
   24  H  2  Z   -0.000003   0.000015   0.000000   0.000000   0.000000
   25  H  2 XX   -0.000001   0.000012   0.000000   0.000000   0.000000
   26  H  2 YY    0.000005   0.000012   0.000000   0.000000   0.000000
   27  H  2 ZZ    0.000012   0.000020   0.000000   0.000000   0.000000
   28  H  2 XY    0.000000   0.000000   0.000004   0.000000   0.000000
   29  H  2 XZ    0.000000   0.000000   0.000000   0.000011   0.000000
   30  H  2 YZ    0.000000   0.000000   0.000000   0.000000   0.000011

                     16         17         18         19         20

   16  H  2  S    0.072556
   17  H  2  S    0.078897   0.177911
   18  H  2  S    0.018014   0.061546   0.035706
   19  H  2  X    0.000000   0.000000   0.000000   0.000168
   20  H  2  Y    0.000000   0.000000   0.000000   0.000000   0.000168
   21  H  2  Z   -0.000000  -0.000000  -0.000000   0.000000   0.000000
   22  H  2  X    0.000000   0.000000   0.000000   0.000175   0.000000
   23  H  2  Y    0.000000   0.000000   0.000000   0.000000   0.000175
   24  H  2  Z   -0.000000   0.000000  -0.000000   0.000000   0.000000
   25  H  2 XX   -0.000214  -0.000537  -0.000234   0.000000   0.000000
   26  H  2 YY   -0.000214  -0.000537  -0.000234   0.000000   0.000000
   27  H  2 ZZ   -0.000034  -0.000389  -0.000162   0.000000   0.000000
   28  H  2 XY    0.000000   0.000000   0.000000   0.000000   0.000000
   29  H  2 XZ    0.000000   0.000000   0.000000  -0.000000   0.000000
   30  H  2 YZ    0.000000   0.000000   0.000000   0.000000  -0.000000

                     21         22         23         24         25

   21  H  2  Z    0.000484
   22  H  2  X    0.000000   0.000907
   23  H  2  Y    0.000000   0.000000   0.000907
   24  H  2  Z    0.000322   0.000000   0.000000   0.000759
   25  H  2 XX    0.000000   0.000000   0.000000  -0.000000   0.000063
   26  H  2 YY    0.000000   0.000000   0.000000  -0.000000   0.000007
   27  H  2 ZZ   -0.000000   0.000000   0.000000   0.000000   0.000003
   28  H  2 XY    0.000000   0.000000   0.000000   0.000000   0.000000
   29  H  2 XZ    0.000000   0.000000   0.000000   0.000000   0.000000
   30  H  2 YZ    0.000000   0.000000   0.000000   0.000000   0.000000

                     26         27         28         29         30

   26  H  2 YY    0.000063
   27  H  2 ZZ    0.000003   0.000083
   28  H  2 XY    0.000000   0.000000   0.000028
   29  H  2 XZ    0.000000   0.000000   0.000000   0.000040
   30  H  2 YZ    0.000000   0.000000   0.000000   0.000000   0.000040

               ----- POPULATIONS IN EACH AO -----
                             MULLIKEN      LOWDIN
              1  H  1  S      0.24646     0.17987
              2  H  1  S      0.52698     0.29444
              3  H  1  S      0.21098     0.23569
              4  H  1  X      0.00045     0.00055
              5  H  1  Y      0.00045     0.00055
              6  H  1  Z      0.00482     0.00614
              7  H  1  X      0.00167     0.00154
              8  H  1  Y      0.00167     0.00154
              9  H  1  Z      0.01039     0.02626
             10  H  1 XX     -0.00184     0.06906
             11  H  1 YY     -0.00184     0.06906
             12  H  1 ZZ     -0.00044     0.11498
             13  H  1 XY      0.00003     0.00003
             14  H  1 XZ      0.00011     0.00013
             15  H  1 YZ      0.00011     0.00013
             16  H  2  S      0.24646     0.17987
             17  H  2  S      0.52698     0.29444
             18  H  2  S      0.21098     0.23569
             19  H  2  X      0.00045     0.00055
             20  H  2  Y      0.00045     0.00055
             21  H  2  Z      0.00482     0.00614
             22  H  2  X      0.00167     0.00154
             23  H  2  Y      0.00167     0.00154
             24  H  2  Z      0.01039     0.02626
             25  H  2 XX     -0.00184     0.06906
             26  H  2 YY     -0.00184     0.06906
             27  H  2 ZZ     -0.00044     0.11498
             28  H  2 XY      0.00003     0.00003
             29  H  2 XZ      0.00011     0.00013
             30  H  2 YZ      0.00011     0.00013

          ----- MULLIKEN ATOMIC OVERLAP POPULATIONS -----
          (OFF-DIAGONAL ELEMENTS NEED TO BE MULTIPLIED BY 2)

             1           2

    1    0.6030574
    2    0.3969426   0.6030574

          TOTAL MULLIKEN AND LOWDIN ATOMIC POPULATIONS
       ATOM         MULL.POP.                    LOW.POP.

          TOTAL MULLIKEN AND LOWDIN ATOMIC POPULATIONS
       ATOM         MULL.POP.    CHARGE          LOW.POP.     CHARGE
    1 H             1.000000                     1.000000
    1 H             1.000000   -0.000000         1.000000   -0.000000
    2 H             1.000000                     1.000000
    2 H             1.000000    0.000000         1.000000    0.000000

          ---------------------
          ELECTROSTATIC MOMENTS
          ---------------------

 POINT   1           X           Y           Z (BOHR)    CHARGE
                 0.000000    0.000000    0.000000        0.00 (A.U.)
         DX          DY          DZ         /D/  (DEBYE)
     0.000000    0.000000    0.000000    0.000000
 ...... END OF PROPERTY EVALUATION ......
 STEP CPU TIME =     0.01 TOTAL CPU TIME =        0.8 (    0.0 MIN)
 TOTAL WALL CLOCK TIME=        2.2 SECONDS, CPU UTILIZATION IS  36.20%
               580000  WORDS OF DYNAMIC MEMORY USED
 EXECUTION OF GAMESS TERMINATED NORMALLY Wed May 15 17:22:57 2013
 DDI: 263624 bytes (0.3 MB / 0 MWords) used by master data server.

 ----------------------------------------
 CPU timing information for all processes
 ========================================
 0: 0.416 + 0.496 = 0.912
 ----------------------------------------
 ddikick.x: exited gracefully.
unset echo
----- accounting info -----
Files used on the master node doreen were:
-rw-rw-r-- 1 lmentel lmentel   31059 maj 15 17:22 /home/lmentel/scratch/h2_cc-pvtz.dat
-rw-r--r-- 1 lmentel lmentel     859 maj 15 17:22 /home/lmentel/scratch/h2_cc-pvtz.F05
-rw-rw-r-- 1 lmentel lmentel  180016 maj 15 17:22 /home/lmentel/scratch/h2_cc-pvtz.F08
-rw-rw-r-- 1 lmentel lmentel  183744 maj 15 17:22 /home/lmentel/scratch/h2_cc-pvtz.F09
-rw-rw-r-- 1 lmentel lmentel 1243360 maj 15 17:22 /home/lmentel/scratch/h2_cc-pvtz.F10
-rw-rw-r-- 1 lmentel lmentel  298248 maj 15 17:22 /home/lmentel/scratch/h2_cc-pvtz.F11
-rw-rw-r-- 1 lmentel lmentel     976 maj 15 17:22 /home/lmentel/scratch/h2_cc-pvtz.F12
-rw-rw-r-- 1 lmentel lmentel  400008 maj 15 17:22 /home/lmentel/scratch/h2_cc-pvtz.F14
-rw-rw-r-- 1 lmentel lmentel  161008 maj 15 17:22 /home/lmentel/scratch/h2_cc-pvtz.F15
-rw-rw-r-- 1 lmentel lmentel  200216 maj 15 17:22 /home/lmentel/scratch/h2_cc-pvtz.F16
pwd
cp /home/lmentel/scratch/h2_cc-pvtz.F08 /home/lmentel/work/mercurial_repo/Vconstr/test/h2/h2_cc-pvtz.F08
pwd
cp /home/lmentel/scratch/h2_cc-pvtz.F09 /home/lmentel/work/mercurial_repo/Vconstr/test/h2/h2_cc-pvtz.F09
pwd
cp /home/lmentel/scratch/h2_cc-pvtz.F10 /home/lmentel/work/mercurial_repo/Vconstr/test/h2/h2_cc-pvtz.F10
pwd
cp /home/lmentel/scratch/basis.info /home/lmentel/work/mercurial_repo/Vconstr/test/h2/h2_cc-pvtz.basinfo
unset echo
ls: No match.
ls: No match.
ls: No match.
śro, 15 maj 2013, 17:23:00 KST
0.0u 0.0s 0:06.05 0.4% 0+0k 2128+3184io 16pf+0w
