----- GAMESS execution script 'rungms' -----
This job is running on host doreen
under operating system Linux at pon, 13 maj 2013, 15:33:44 KST
Available scratch disk space (Kbyte units) at beginning of the job is
System plików      1K-bl     użyte dostępne %uż. zamont. na
/dev/sda5      242137496 221501916  8335704  97% /home
GAMESS temporary binary files will be written to /home/lmentel/scratch
GAMESS supplementary output files will be written to /home/lmentel/scratch
Copying input file h2_cc-pvdz.inp to your run's scratch directory...
cp h2_cc-pvdz.inp /home/lmentel/scratch/h2_cc-pvdz.F05
unset echo
/home/lmentel/Programs/gamess-may2012/ddikick.x /home/lmentel/Programs/gamess-may2012/gamess.01.x h2_cc-pvdz -ddi 1 1 doreen -scr /home/lmentel/scratch

 Distributed Data Interface kickoff program.
 Initiating 1 compute processes on 1 nodes to run the following command:
 /home/lmentel/Programs/gamess-may2012/gamess.01.x h2_cc-pvdz 

          ******************************************************
          *         GAMESS VERSION =  1 MAY 2012 (R1)          *
          *             FROM IOWA STATE UNIVERSITY             *
          * M.W.SCHMIDT, K.K.BALDRIDGE, J.A.BOATZ, S.T.ELBERT, *
          *   M.S.GORDON, J.H.JENSEN, S.KOSEKI, N.MATSUNAGA,   *
          *          K.A.NGUYEN, S.J.SU, T.L.WINDUS,           *
          *       TOGETHER WITH M.DUPUIS, J.A.MONTGOMERY       *
          *         J.COMPUT.CHEM.  14, 1347-1363(1993)        *
          **************** 64 BIT LINUX VERSION ****************

  SINCE 1993, STUDENTS AND POSTDOCS WORKING AT IOWA STATE UNIVERSITY
  AND ALSO IN THEIR VARIOUS JOBS AFTER LEAVING ISU HAVE MADE IMPORTANT
  CONTRIBUTIONS TO THE CODE:
     IVANA ADAMOVIC, CHRISTINE AIKENS, YURI ALEXEEV, POOJA ARORA,
     ANDREY ASADCHEV, ROB BELL, PRADIPTA BANDYOPADHYAY, JONATHAN BENTZ,
     BRETT BODE, GALINA CHABAN, WEI CHEN, CHEOL HO CHOI, PAUL DAY,
     ALBERT DEFUSCO, TIM DUDLEY, DMITRI FEDOROV, GRAHAM FLETCHER,
     MARK FREITAG, KURT GLAESEMANN, DAN KEMP, GRANT MERRILL,
     NORIYUKI MINEZAWA, JONATHAN MULLIN, TAKESHI NAGATA,
     SEAN NEDD, HEATHER NETZLOFF, BOSILJKA NJEGIC, RYAN OLSON, MIKE PAK,
     JIM SHOEMAKER, LYUDMILA SLIPCHENKO, SAROM SOK, JIE SONG,
     TETSUYA TAKETSUGU, SIMON WEBB, SOOHAENG YOO, FEDERICO ZAHARIEV

  ADDITIONAL CODE HAS BEEN PROVIDED BY COLLABORATORS IN OTHER GROUPS:
     IOWA STATE UNIVERSITY:
          JOE IVANIC, LAIMUTIS BYTAUTAS, KLAUS RUEDENBERG
     UNIVERSITY OF TOKYO: KIMIHIKO HIRAO, TAKAHITO NAKAJIMA,
          TAKAO TSUNEDA, MUNEAKI KAMIYA, SUSUMU YANAGISAWA,
          KIYOSHI YAGI, MAHITO CHIBA, SEIKEN TOKURA, NAOAKI KAWAKAMI
     UNIVERSITY OF AARHUS: FRANK JENSEN
     UNIVERSITY OF IOWA: VISVALDAS KAIRYS, HUI LI
     NATIONAL INST. OF STANDARDS AND TECHNOLOGY: WALT STEVENS, DAVID GARMER
     UNIVERSITY OF PISA: BENEDETTA MENNUCCI, JACOPO TOMASI
     UNIVERSITY OF MEMPHIS: HENRY KURTZ, PRAKASHAN KORAMBATH
     UNIVERSITY OF ALBERTA: TOBY ZENG, MARIUSZ KLOBUKOWSKI
     UNIVERSITY OF NEW ENGLAND: MARK SPACKMAN
     MIE UNIVERSITY: HIROAKI UMEDA
     MICHIGAN STATE UNIVERSITY:
          KAROL KOWALSKI, MARTA WLOCH, JEFFREY GOUR, JESSE LUTZ, PIOTR PIECUCH
     UNIVERSITY OF SILESIA: MONIKA MUSIAL, STANISLAW KUCHARSKI
     FACULTES UNIVERSITAIRES NOTRE-DAME DE LA PAIX:
          OLIVIER QUINET, BENOIT CHAMPAGNE
     UNIVERSITY OF CALIFORNIA - SANTA BARBARA: BERNARD KIRTMAN
     INSTITUTE FOR MOLECULAR SCIENCE:
          KAZUYA ISHIMURA, MICHIO KATOUDA, AND SHIGERU NAGASE
     UNIVERSITY OF NOTRE DAME: DAN CHIPMAN
     KYUSHU UNIVERSITY:
          HARUYUKI NAKANO,
          FENG LONG GU, JACEK KORCHOWIEC, MARCIN MAKOWSKI, AND YURIKO AOKI,
          HIROTOSHI MORI AND EISAKU MIYOSHI
     PENNSYLVANIA STATE UNIVERSITY:
          TZVETELIN IORDANOV, CHET SWALINA, JONATHAN SKONE,
          SHARON HAMMES-SCHIFFER
     WASEDA UNIVERSITY:
          MASATO KOBAYASHI, TOMOKO AKAMA, TSUGUKI TOUMA,
          TAKESHI YOSHIKAWA, YASUHIRO IKABATA, HIROMI NAKAI
     UNIVERSITY OF NEBRASKA:
          PEIFENG SU, DEJUN SI, NANDUN THELLAMUREGE, YALI WANG, HUI LI
     UNIVERSITY OF ZURICH:
          ROBERTO PEVERATI, KIM BALDRIDGE
     N. COPERNICUS UNIVERSITY AND JACKSON STATE UNIVERSITY:
          MARIA BARYSZ

 EXECUTION OF GAMESS BEGUN Mon May 13 15:33:44 2013

            ECHO OF THE FIRST FEW INPUT CARDS -
 INPUT CARD> $CONTRL                                                                        
 INPUT CARD>    SCFTYP=RHF                                                                  
 INPUT CARD>    RUNTYP=ENERGY                                                               
 INPUT CARD>    cityp=guga                                                                  
 INPUT CARD>    UNITS=BOHR                                                                  
 INPUT CARD>    ISPHER=-1                                                                   
 INPUT CARD>    nprint=3                                                                    
 INPUT CARD> $END                                                                           
 INPUT CARD> $SYSTEM                                                                        
 INPUT CARD>    TIMLIM=1000000                                                              
 INPUT CARD>    mwords=100                                                                  
 INPUT CARD> $END                                                                           
 INPUT CARD> $SCF dirscf=.false. $END                                                       
 INPUT CARD> $CIDRT                                                                         
 INPUT CARD>    iexcit=2                                                                    
 INPUT CARD>    ndoc=1                                                                      
 INPUT CARD>    nval=9                                                                      
 INPUT CARD>    group=d2h                                                                   
 INPUT CARD> $END                                                                           
 INPUT CARD> $CIINP                                                                         
 INPUT CARD>    npflg(2)=2                                                                  
 INPUT CARD> $END                                                                           
 INPUT CARD> $GUGDM                                                                         
 INPUT CARD>    nflgdm=1                                                                    
 INPUT CARD> $END                                                                           
 INPUT CARD> $DATA                                                                          
 INPUT CARD>Hydrogen molecule at equlibium in cc-pVDZ basis                                 
 INPUT CARD>dnh      2                                                                      
 INPUT CARD>                                                                                
 INPUT CARD>H     1.0      0.000000    0.000000   0.724368                                  
 INPUT CARD>S   3                                                                           
 INPUT CARD>  1     13.0100000              0.0196850                                       
 INPUT CARD>  2      1.9620000              0.1379770                                       
 INPUT CARD>  3      0.4446000              0.4781480                                       
 INPUT CARD>S   1                                                                           
 INPUT CARD>  1      0.1220000              1.0000000                                       
 INPUT CARD>P   1                                                                           
 INPUT CARD>  1      0.7270000              1.0000000                                       
 INPUT CARD>                                                                                
 INPUT CARD> $END                                                                           
  100000000 WORDS OF MEMORY AVAILABLE


     RUN TITLE
     ---------
 Hydrogen molecule at equlibium in cc-pVDZ basis                                 

 THE POINT GROUP OF THE MOLECULE IS DNH     
 THE ORDER OF THE PRINCIPAL AXIS IS     2
 *** WARNING! ATOM   1 SHELL    1 TYPE S HAS NORMALIZATION   1.70173870

 ATOM      ATOMIC                      COORDINATES (BOHR)
           CHARGE         X                   Y                   Z
 H           1.0     0.0000000000        0.0000000000       -0.7243680000
 H           1.0     0.0000000000        0.0000000000        0.7243680000

          INTERNUCLEAR DISTANCES (ANGS.)
          ------------------------------

                1 H          2 H     

   1 H       0.0000000    0.7666381 *
   2 H       0.7666381 *  0.0000000  

  * ... LESS THAN  3.000


     ATOMIC BASIS SET
     ----------------
 THE CONTRACTED PRIMITIVE FUNCTIONS HAVE BEEN UNNORMALIZED
 THE CONTRACTED BASIS FUNCTIONS ARE NOW NORMALIZED TO UNITY

  SHELL TYPE  PRIMITIVE        EXPONENT          CONTRACTION COEFFICIENT(S)

 H         

      4   S       1            13.0100000    0.033498726390
      4   S       2             1.9620000    0.234800801174
      4   S       3             0.4446000    0.813682957883

      5   S       4             0.1220000    1.000000000000

      6   P       5             0.7270000    1.000000000000

 TOTAL NUMBER OF BASIS SET SHELLS             =    6
 NUMBER OF CARTESIAN GAUSSIAN BASIS FUNCTIONS =   10
 NUMBER OF ELECTRONS                          =    2
 CHARGE OF MOLECULE                           =    0
 SPIN MULTIPLICITY                            =    1
 NUMBER OF OCCUPIED ORBITALS (ALPHA)          =    1
 NUMBER OF OCCUPIED ORBITALS (BETA )          =    1
 TOTAL NUMBER OF ATOMS                        =    2
 THE NUCLEAR REPULSION ENERGY IS        0.6902568860

 THIS MOLECULE IS RECOGNIZED AS BEING LINEAR,
 ORBITAL LZ DEGENERACY TOLERANCE ETOLLZ= 1.00E-06

     $CONTRL OPTIONS
     ---------------
 SCFTYP=RHF          RUNTYP=ENERGY       EXETYP=RUN     
 MPLEVL=       0     CITYP =GUGA         CCTYP =NONE         VBTYP =NONE    
 DFTTYP=NONE         TDDFT =NONE    
 MULT  =       1     ICHARG=       0     NZVAR =       0     COORD =UNIQUE  
 PP    =NONE         RELWFN=NONE         LOCAL =NONE         NUMGRD=       F
 ISPHER=      -1     NOSYM =       0     MAXIT =      30     UNITS =BOHR    
 PLTORB=       F     MOLPLT=       F     AIMPAC=       F     FRIEND=        
 NPRINT=       3     IREST =       0     GEOM  =INPUT   
 NORMF =       0     NORMP =       0     ITOL  =      20     ICUT  =       9
 INTTYP=BEST         GRDTYP=BEST         QMTTOL= 1.0E-06

     $SYSTEM OPTIONS
     ---------------
  REPLICATED MEMORY=   100000000 WORDS (ON EVERY NODE).
 DISTRIBUTED MEMDDI=           0 MILLION WORDS IN AGGREGATE,
 MEMDDI DISTRIBUTED OVER   1 PROCESSORS IS           0 WORDS/PROCESSOR.
 TOTAL MEMORY REQUESTED ON EACH PROCESSOR=   100000000 WORDS.
 TIMLIM=     1000000.00 MINUTES, OR     694.4 DAYS.
 PARALL= F  BALTYP=  DLB     KDIAG=    0  COREFL= F
 MXSEQ2=     300 MXSEQ3=     150

          ----------------
          PROPERTIES INPUT
          ----------------

     MOMENTS            FIELD           POTENTIAL          DENSITY
 IEMOM =       1   IEFLD =       0   IEPOT =       0   IEDEN =       0
 WHERE =COMASS     WHERE =NUCLEI     WHERE =NUCLEI     WHERE =NUCLEI  
 OUTPUT=BOTH       OUTPUT=BOTH       OUTPUT=BOTH       OUTPUT=BOTH    
 IEMINT=       0   IEFINT=       0                     IEDINT=       0
                                                       MORB  =       0
          EXTRAPOLATION IN EFFECT
          SOSCF IN EFFECT
 ORBITAL PRINTING OPTION: NPREO=     1    10     2     1

     -------------------------------
     INTEGRAL TRANSFORMATION OPTIONS
     -------------------------------
     NWORD  =            0
     CUTOFF = 1.0E-09     MPTRAN =       0
     DIRTRF =       F     AOINTS =DUP     

          ----------------------
          INTEGRAL INPUT OPTIONS
          ----------------------
 NOPK  =       1 NORDER=       0 SCHWRZ=       F

     ------------------------------------------
     THE POINT GROUP IS DNH, NAXIS= 2, ORDER= 8
     ------------------------------------------
 .....inside daread start
 idaf   =                    10
 len    =                   432
 nrec   =                     7
 idtyp  =                     0
      /daioln/
 ir     =                     5
 iw     =                     6
 ip     =                     7
      /par   /
 me     =                     0
 master =                     0
 nproc  =                     1
 ibtyp  =                     1
 iptim  =                     0
 goparr =  F
 dskwrk =  F
 maswrk =  T
 .....inside daread end
 .....inside dard start
 len    =                   432
 ns     =                     2
 idtyp  =                     0
      /machin/
 nwdvar =                     1
 maxfm  =             100000000
 maxsm  =                     0
 limfm  =        17558851506825
 limsm  =                     0
      /par   /
 me     =                     0
 master =                     0
 nproc  =                     1
 ibtyp  =                     1
 iptim  =                     0
 goparr =  F
 dskwrk =  F
 maswrk =  T
 .....inside dard end
 .....inside daread start
 idaf   =                    10
 len    =                  1728
 nrec   =                     8
 idtyp  =                     0
      /daioln/
 ir     =                     5
 iw     =                     6
 ip     =                     7
      /par   /
 me     =                     0
 master =                     0
 nproc  =                     1
 ibtyp  =                     1
 iptim  =                     0
 goparr =  F
 dskwrk =  F
 maswrk =  T
 .....inside daread end
 .....inside dard start
 len    =                  1728
 ns     =                     3
 idtyp  =                     0
      /machin/
 nwdvar =                     1
 maxfm  =             100000000
 maxsm  =                     0
 limfm  =        17558851506825
 limsm  =                     0
      /par   /
 me     =                     0
 master =                     0
 nproc  =                     1
 ibtyp  =                     1
 iptim  =                     0
 goparr =  F
 dskwrk =  F
 maswrk =  T
 .....inside dard end
 .....inside daread start
 idaf   =                    10
 len    =                  4800
 nrec   =                     9
 idtyp  =                     0
      /daioln/
 ir     =                     5
 iw     =                     6
 ip     =                     7
      /par   /
 me     =                     0
 master =                     0
 nproc  =                     1
 ibtyp  =                     1
 iptim  =                     0
 goparr =  F
 dskwrk =  F
 maswrk =  T
 .....inside daread end
 .....inside dard start
 len    =                  4090
 ns     =                     4
 idtyp  =                     0
      /machin/
 nwdvar =                     1
 maxfm  =             100000000
 maxsm  =                     0
 limfm  =        17558851506825
 limsm  =                     0
      /par   /
 me     =                     0
 master =                     0
 nproc  =                     1
 ibtyp  =                     1
 iptim  =                     0
 goparr =  F
 dskwrk =  F
 maswrk =  T
 .....inside dard end
 .....inside dard start
 len    =                   710
 ns     =                     5
 idtyp  =                     0
      /machin/
 nwdvar =                     1
 maxfm  =             100000000
 maxsm  =                     0
 limfm  =        17558851506825
 limsm  =                     0
      /par   /
 me     =                     0
 master =                     0
 nproc  =                     1
 ibtyp  =                     1
 iptim  =                     0
 goparr =  F
 dskwrk =  F
 maswrk =  T
 .....inside dard end
 .....inside daread start
 idaf   =                    10
 len    =                 10800
 nrec   =                    10
 idtyp  =                     0
      /daioln/
 ir     =                     5
 iw     =                     6
 ip     =                     7
      /par   /
 me     =                     0
 master =                     0
 nproc  =                     1
 ibtyp  =                     1
 iptim  =                     0
 goparr =  F
 dskwrk =  F
 maswrk =  T
 .....inside daread end
 .....inside dard start
 len    =                  4090
 ns     =                     6
 idtyp  =                     0
      /machin/
 nwdvar =                     1
 maxfm  =             100000000
 maxsm  =                     0
 limfm  =        17558851506825
 limsm  =                     0
      /par   /
 me     =                     0
 master =                     0
 nproc  =                     1
 ibtyp  =                     1
 iptim  =                     0
 goparr =  F
 dskwrk =  F
 maswrk =  T
 .....inside dard end
 .....inside dard start
 len    =                  4090
 ns     =                     7
 idtyp  =                     0
      /machin/
 nwdvar =                     1
 maxfm  =             100000000
 maxsm  =                     0
 limfm  =        17558851506825
 limsm  =                     0
      /par   /
 me     =                     0
 master =                     0
 nproc  =                     1
 ibtyp  =                     1
 iptim  =                     0
 goparr =  F
 dskwrk =  F
 maswrk =  T
 .....inside dard end
 .....inside dard start
 len    =                  2620
 ns     =                     8
 idtyp  =                     0
      /machin/
 nwdvar =                     1
 maxfm  =             100000000
 maxsm  =                     0
 limfm  =        17558851506825
 limsm  =                     0
      /par   /
 me     =                     0
 master =                     0
 nproc  =                     1
 ibtyp  =                     1
 iptim  =                     0
 goparr =  F
 dskwrk =  F
 maswrk =  T
 .....inside dard end

     DIMENSIONS OF THE SYMMETRY SUBSPACES ARE
 AG  =    3     AU  =    0     B3U =    1     B3G =    1     B1G =    0
 B1U =    3     B2U =    1     B2G =    1

 ..... DONE SETTING UP THE RUN .....
 STEP CPU TIME =     0.00 TOTAL CPU TIME =        0.0 (    0.0 MIN)
 TOTAL WALL CLOCK TIME=        0.0 SECONDS, CPU UTILIZATION IS   0.00%

          ********************
          1 ELECTRON INTEGRALS
          ********************
 OVERLAP MATRIX

                      1          2          3          4          5

    1  H  1  S    1.000000
    2  H  1  S    0.684860   1.000000
    3  H  1  X    0.000000   0.000000   1.000000
    4  H  1  Y    0.000000   0.000000   0.000000   1.000000
    5  H  1  Z   -0.000000   0.000000   0.000000   0.000000   1.000000
    6  H  2  S    0.549333   0.557649   0.000000   0.000000   0.530683
    7  H  2  S    0.557649   0.879828   0.000000   0.000000   0.167540
    8  H  2  X    0.000000   0.000000   0.466300   0.000000   0.000000
    9  H  2  Y    0.000000   0.000000   0.000000   0.466300   0.000000
   10  H  2  Z   -0.530683  -0.167540   0.000000   0.000000  -0.245205

                      6          7          8          9         10

    6  H  2  S    1.000000
    7  H  2  S    0.684860   1.000000
    8  H  2  X    0.000000   0.000000   1.000000
    9  H  2  Y    0.000000   0.000000   0.000000   1.000000
   10  H  2  Z    0.000000   0.000000   0.000000   0.000000   1.000000
 BARE NUCLEUS HAMILTONIAN INTEGRALS (H=T+V)

                      1          2          3          4          5

    1  H  1  S   -1.074006
    2  H  1  S   -0.869538  -0.849608
    3  H  1  X    0.000000   0.000000   0.330503
    4  H  1  Y    0.000000   0.000000   0.000000   0.330503
    5  H  1  Z   -0.251455  -0.193290   0.000000   0.000000   0.091747
    6  H  2  S   -0.861165  -0.760166   0.000000   0.000000  -0.564604
    7  H  2  S   -0.760166  -0.793231   0.000000   0.000000  -0.323968
    8  H  2  X    0.000000   0.000000  -0.146445   0.000000   0.000000
    9  H  2  Y    0.000000   0.000000   0.000000  -0.146445   0.000000
   10  H  2  Z    0.564604   0.323968   0.000000   0.000000  -0.251171

                      6          7          8          9         10

    6  H  2  S   -1.074006
    7  H  2  S   -0.869538  -0.849608
    8  H  2  X    0.000000   0.000000   0.330503
    9  H  2  Y    0.000000   0.000000   0.000000   0.330503
   10  H  2  Z    0.251455   0.193290   0.000000   0.000000   0.091747
 KINETIC ENERGY INTEGRALS

                      1          2          3          4          5

    1  H  1  S    0.969457
    2  H  1  S    0.201234   0.183000
    3  H  1  X    0.000000   0.000000   1.817500
    4  H  1  Y    0.000000   0.000000   0.000000   1.817500
    5  H  1  Z   -0.000000  -0.000000   0.000000   0.000000   1.817500
    6  H  2  S    0.249205   0.141218   0.000000   0.000000   0.612517
    7  H  2  S    0.141218   0.147266   0.000000   0.000000   0.079838
    8  H  2  X    0.000000   0.000000   0.588867   0.000000   0.000000
    9  H  2  Y    0.000000   0.000000   0.000000   0.588867   0.000000
   10  H  2  Z   -0.612517  -0.079838   0.000000   0.000000  -0.826922

                      6          7          8          9         10

    6  H  2  S    0.969457
    7  H  2  S    0.201234   0.183000
    8  H  2  X    0.000000   0.000000   1.817500
    9  H  2  Y    0.000000   0.000000   0.000000   1.817500
   10  H  2  Z    0.000000   0.000000   0.000000   0.000000   1.817500
 Z-ANGULAR MOMENTUM INTEGRALS

                      1          2          3          4          5

    1  H  1  S    0.000000
    2  H  1  S    0.000000   0.000000
    3  H  1  X    0.000000   0.000000   0.000000
    4  H  1  Y    0.000000   0.000000  -1.000000   0.000000
    5  H  1  Z    0.000000   0.000000   0.000000   0.000000   0.000000
    6  H  2  S    0.000000   0.000000   0.000000   0.000000   0.000000
    7  H  2  S    0.000000   0.000000   0.000000   0.000000   0.000000
    8  H  2  X    0.000000   0.000000   0.000000   0.466300   0.000000
    9  H  2  Y    0.000000   0.000000  -0.466300   0.000000   0.000000
   10  H  2  Z    0.000000   0.000000   0.000000   0.000000   0.000000

                      6          7          8          9         10

    6  H  2  S    0.000000
    7  H  2  S    0.000000   0.000000
    8  H  2  X    0.000000   0.000000   0.000000
    9  H  2  Y    0.000000   0.000000  -1.000000   0.000000
   10  H  2  Z    0.000000   0.000000   0.000000   0.000000   0.000000
 ...... END OF ONE-ELECTRON INTEGRALS ......
 STEP CPU TIME =     0.00 TOTAL CPU TIME =        0.0 (    0.0 MIN)
 TOTAL WALL CLOCK TIME=        0.0 SECONDS, CPU UTILIZATION IS   0.00%

          -------------
          GUESS OPTIONS
          -------------
          GUESS =HUCKEL            NORB  =       0          NORDER=       0
          MIX   =       F          PRTMO =       F          PUNMO =       F
          TOLZ  = 1.0E-08          TOLE  = 1.0E-05
          SYMDEN=       F          PURIFY=       F

 INITIAL GUESS ORBITALS GENERATED BY HUCKEL   ROUTINE.
 HUCKEL GUESS REQUIRES      2128 WORDS.
 .....inside daread start
 idaf   =                    10
 len    =                    55
 nrec   =                    12
 idtyp  =                     0
      /daioln/
 ir     =                     5
 iw     =                     6
 ip     =                     7
      /par   /
 me     =                     0
 master =                     0
 nproc  =                     1
 ibtyp  =                     1
 iptim  =                     0
 goparr =  F
 dskwrk =  F
 maswrk =  T
 .....inside daread end
 .....inside dard start
 len    =                    55
 ns     =                    13
 idtyp  =                     0
      /machin/
 nwdvar =                     1
 maxfm  =             100000000
 maxsm  =                     0
 limfm  =        17558851506825
 limsm  =                     0
      /par   /
 me     =                     0
 master =                     0
 nproc  =                     1
 ibtyp  =                     1
 iptim  =                     0
 goparr =  F
 dskwrk =  F
 maswrk =  T
 .....inside dard end
 .....inside daread start
 idaf   =                    10
 len    =                   100
 nrec   =                    44
 idtyp  =                     0
      /daioln/
 ir     =                     5
 iw     =                     6
 ip     =                     7
      /par   /
 me     =                     0
 master =                     0
 nproc  =                     1
 ibtyp  =                     1
 iptim  =                     0
 goparr =  F
 dskwrk =  F
 maswrk =  T
 .....inside daread end
 .....inside dard start
 len    =                   100
 ns     =                    11
 idtyp  =                     0
      /machin/
 nwdvar =                     1
 maxfm  =             100000000
 maxsm  =                     0
 limfm  =        17558851506825
 limsm  =                     0
      /par   /
 me     =                     0
 master =                     0
 nproc  =                     1
 ibtyp  =                     1
 iptim  =                     0
 goparr =  F
 dskwrk =  F
 maswrk =  T
 .....inside dard end
 .....inside daread start
 idaf   =                    10
 len    =                   100
 nrec   =                    44
 idtyp  =                     0
      /daioln/
 ir     =                     5
 iw     =                     6
 ip     =                     7
      /par   /
 me     =                     0
 master =                     0
 nproc  =                     1
 ibtyp  =                     1
 iptim  =                     0
 goparr =  F
 dskwrk =  F
 maswrk =  T
 .....inside daread end
 .....inside dard start
 len    =                   100
 ns     =                    11
 idtyp  =                     0
      /machin/
 nwdvar =                     1
 maxfm  =             100000000
 maxsm  =                     0
 limfm  =        17558851506825
 limsm  =                     0
      /par   /
 me     =                     0
 master =                     0
 nproc  =                     1
 ibtyp  =                     1
 iptim  =                     0
 goparr =  F
 dskwrk =  F
 maswrk =  T
 .....inside dard end
 .....inside daread start
 idaf   =                    10
 len    =                    55
 nrec   =                    12
 idtyp  =                     0
      /daioln/
 ir     =                     5
 iw     =                     6
 ip     =                     7
      /par   /
 me     =                     0
 master =                     0
 nproc  =                     1
 ibtyp  =                     1
 iptim  =                     0
 goparr =  F
 dskwrk =  F
 maswrk =  T
 .....inside daread end
 .....inside dard start
 len    =                    55
 ns     =                    13
 idtyp  =                     0
      /machin/
 nwdvar =                     1
 maxfm  =             100000000
 maxsm  =                     0
 limfm  =        17558851506825
 limsm  =                     0
      /par   /
 me     =                     0
 master =                     0
 nproc  =                     1
 ibtyp  =                     1
 iptim  =                     0
 goparr =  F
 dskwrk =  F
 maswrk =  T
 .....inside dard end
 .....inside daread start
 idaf   =                    10
 len    =                   100
 nrec   =                    45
 idtyp  =                     0
      /daioln/
 ir     =                     5
 iw     =                     6
 ip     =                     7
      /par   /
 me     =                     0
 master =                     0
 nproc  =                     1
 ibtyp  =                     1
 iptim  =                     0
 goparr =  F
 dskwrk =  F
 maswrk =  T
 .....inside daread end
 .....inside dard start
 len    =                   100
 ns     =                    18
 idtyp  =                     0
      /machin/
 nwdvar =                     1
 maxfm  =             100000000
 maxsm  =                     0
 limfm  =        17558851506825
 limsm  =                     0
      /par   /
 me     =                     0
 master =                     0
 nproc  =                     1
 ibtyp  =                     1
 iptim  =                     0
 goparr =  F
 dskwrk =  F
 maswrk =  T
 .....inside dard end
 .....inside daread start
 idaf   =                    10
 len    =                   100
 nrec   =                    15
 idtyp  =                     0
      /daioln/
 ir     =                     5
 iw     =                     6
 ip     =                     7
      /par   /
 me     =                     0
 master =                     0
 nproc  =                     1
 ibtyp  =                     1
 iptim  =                     0
 goparr =  F
 dskwrk =  F
 maswrk =  T
 .....inside daread end
 .....inside dard start
 len    =                   100
 ns     =                    19
 idtyp  =                     0
      /machin/
 nwdvar =                     1
 maxfm  =             100000000
 maxsm  =                     0
 limfm  =        17558851506825
 limsm  =                     0
      /par   /
 me     =                     0
 master =                     0
 nproc  =                     1
 ibtyp  =                     1
 iptim  =                     0
 goparr =  F
 dskwrk =  F
 maswrk =  T
 .....inside dard end
 .....inside daread start
 idaf   =                    10
 len    =                    55
 nrec   =                    12
 idtyp  =                     0
      /daioln/
 ir     =                     5
 iw     =                     6
 ip     =                     7
      /par   /
 me     =                     0
 master =                     0
 nproc  =                     1
 ibtyp  =                     1
 iptim  =                     0
 goparr =  F
 dskwrk =  F
 maswrk =  T
 .....inside daread end
 .....inside dard start
 len    =                    55
 ns     =                    13
 idtyp  =                     0
      /machin/
 nwdvar =                     1
 maxfm  =             100000000
 maxsm  =                     0
 limfm  =        17558851506825
 limsm  =                     0
      /par   /
 me     =                     0
 master =                     0
 nproc  =                     1
 ibtyp  =                     1
 iptim  =                     0
 goparr =  F
 dskwrk =  F
 maswrk =  T
 .....inside dard end
 .....inside daread start
 idaf   =                    10
 len    =                   100
 nrec   =                    45
 idtyp  =                     0
      /daioln/
 ir     =                     5
 iw     =                     6
 ip     =                     7
      /par   /
 me     =                     0
 master =                     0
 nproc  =                     1
 ibtyp  =                     1
 iptim  =                     0
 goparr =  F
 dskwrk =  F
 maswrk =  T
 .....inside daread end
 .....inside dard start
 len    =                   100
 ns     =                    18
 idtyp  =                     0
      /machin/
 nwdvar =                     1
 maxfm  =             100000000
 maxsm  =                     0
 limfm  =        17558851506825
 limsm  =                     0
      /par   /
 me     =                     0
 master =                     0
 nproc  =                     1
 ibtyp  =                     1
 iptim  =                     0
 goparr =  F
 dskwrk =  F
 maswrk =  T
 .....inside dard end

 SYMMETRIES FOR INITIAL GUESS ORBITALS FOLLOW.   BOTH SET(S).
     1 ORBITALS ARE OCCUPIED (    0 CORE ORBITALS).
     1=AG       2=B1U      3=AG       4=AG       5=B3U      6=B3G      7=B1U 
     8=B1U      9=B2U     10=B2G 
 ...... END OF INITIAL ORBITAL SELECTION ......
 STEP CPU TIME =     0.00 TOTAL CPU TIME =        0.0 (    0.0 MIN)
 TOTAL WALL CLOCK TIME=        0.0 SECONDS, CPU UTILIZATION IS   0.00%

                    ----------------------
                    AO INTEGRAL TECHNOLOGY
                    ----------------------
     S,P,L SHELL ROTATED AXIS INTEGRALS, REPROGRAMMED BY
        KAZUYA ISHIMURA (IMS) AND JOSE SIERRA (SYNSTAR).
     S,P,D,L SHELL ROTATED AXIS INTEGRALS PROGRAMMED BY
        KAZUYA ISHIMURA (INSTITUTE FOR MOLECULAR SCIENCE).
     S,P,D,F,G SHELL TO TOTAL QUARTET ANGULAR MOMENTUM SUM 5,
        ERIC PROGRAM BY GRAHAM FLETCHER (ELORET AND NASA ADVANCED
        SUPERCOMPUTING DIVISION, AMES RESEARCH CENTER).
     S,P,D,F,G,L SHELL GENERAL RYS QUADRATURE PROGRAMMED BY
        MICHEL DUPUIS (PACIFIC NORTHWEST NATIONAL LABORATORY).

          --------------------
          2 ELECTRON INTEGRALS
          --------------------

 THE -PK- OPTION IS OFF, THE INTEGRALS ARE NOT IN SUPERMATRIX FORM.
 STORING   15000 INTEGRALS/RECORD ON DISK, USING 12 BYTES/INTEGRAL.
 TWO ELECTRON INTEGRAL EVALUATION REQUIRES   89377 WORDS OF MEMORY.
 II,JST,KST,LST =  1  1  1  1 NREC =         1 INTLOC =    1
 II,JST,KST,LST =  2  1  1  1 NREC =         1 INTLOC =    1
 II,JST,KST,LST =  3  1  1  1 NREC =         1 INTLOC =    1
 II,JST,KST,LST =  4  1  1  1 NREC =         1 INTLOC =    1
 II,JST,KST,LST =  5  1  1  1 NREC =         1 INTLOC =    5
 II,JST,KST,LST =  6  1  1  1 NREC =         1 INTLOC =   32
 TOTAL NUMBER OF NONZERO TWO-ELECTRON INTEGRALS =                 282
          1 INTEGRAL RECORDS WERE STORED ON DISK FILE  8.
  ...... END OF TWO-ELECTRON INTEGRALS .....
 STEP CPU TIME =     0.02 TOTAL CPU TIME =        0.0 (    0.0 MIN)
 TOTAL WALL CLOCK TIME=        0.0 SECONDS, CPU UTILIZATION IS 100.00%

          --------------------------
                 RHF SCF CALCULATION
          --------------------------

     NUCLEAR ENERGY =         0.6902568860
     MAXIT =   30     NPUNCH=    2
     EXTRAP=T  DAMP=F  SHIFT=F  RSTRCT=F  DIIS=F  DEM=F  SOSCF=T
     DENSITY MATRIX CONV=  1.00E-06
     SOSCF WILL OPTIMIZE       9 ORBITAL ROTATIONS, SOGTOL=   0.250
     MEMORY REQUIRED FOR RHF ITERS=     30876 WORDS.
 .....inside daread start
 idaf   =                    10
 len    =                    55
 nrec   =                    11
 idtyp  =                     0
      /daioln/
 ir     =                     5
 iw     =                     6
 ip     =                     7
      /par   /
 me     =                     0
 master =                     0
 nproc  =                     1
 ibtyp  =                     1
 iptim  =                     0
 goparr =  F
 dskwrk =  F
 maswrk =  T
 .....inside daread end
 .....inside dard start
 len    =                    55
 ns     =                    12
 idtyp  =                     0
      /machin/
 nwdvar =                     1
 maxfm  =             100000000
 maxsm  =                     0
 limfm  =        17558851506825
 limsm  =                     0
      /par   /
 me     =                     0
 master =                     0
 nproc  =                     1
 ibtyp  =                     1
 iptim  =                     0
 goparr =  F
 dskwrk =  F
 maswrk =  T
 .....inside dard end
 .....inside daread start
 idaf   =                    10
 len    =                    55
 nrec   =                    12
 idtyp  =                     0
      /daioln/
 ir     =                     5
 iw     =                     6
 ip     =                     7
      /par   /
 me     =                     0
 master =                     0
 nproc  =                     1
 ibtyp  =                     1
 iptim  =                     0
 goparr =  F
 dskwrk =  F
 maswrk =  T
 .....inside daread end
 .....inside dard start
 len    =                    55
 ns     =                    13
 idtyp  =                     0
      /machin/
 nwdvar =                     1
 maxfm  =             100000000
 maxsm  =                     0
 limfm  =        17558851506825
 limsm  =                     0
      /par   /
 me     =                     0
 master =                     0
 nproc  =                     1
 ibtyp  =                     1
 iptim  =                     0
 goparr =  F
 dskwrk =  F
 maswrk =  T
 .....inside dard end
 .....inside daread start
 idaf   =                    10
 len    =                   100
 nrec   =                    45
 idtyp  =                     0
      /daioln/
 ir     =                     5
 iw     =                     6
 ip     =                     7
      /par   /
 me     =                     0
 master =                     0
 nproc  =                     1
 ibtyp  =                     1
 iptim  =                     0
 goparr =  F
 dskwrk =  F
 maswrk =  T
 .....inside daread end
 .....inside dard start
 len    =                   100
 ns     =                    18
 idtyp  =                     0
      /machin/
 nwdvar =                     1
 maxfm  =             100000000
 maxsm  =                     0
 limfm  =        17558851506825
 limsm  =                     0
      /par   /
 me     =                     0
 master =                     0
 nproc  =                     1
 ibtyp  =                     1
 iptim  =                     0
 goparr =  F
 dskwrk =  F
 maswrk =  T
 .....inside dard end
 .....inside daread start
 idaf   =                    10
 len    =                    55
 nrec   =                    16
 idtyp  =                     0
      /daioln/
 ir     =                     5
 iw     =                     6
 ip     =                     7
      /par   /
 me     =                     0
 master =                     0
 nproc  =                     1
 ibtyp  =                     1
 iptim  =                     0
 goparr =  F
 dskwrk =  F
 maswrk =  T
 .....inside daread end
 .....inside dard start
 len    =                    55
 ns     =                    21
 idtyp  =                     0
      /machin/
 nwdvar =                     1
 maxfm  =             100000000
 maxsm  =                     0
 limfm  =        17558851506825
 limsm  =                     0
      /par   /
 me     =                     0
 master =                     0
 nproc  =                     1
 ibtyp  =                     1
 iptim  =                     0
 goparr =  F
 dskwrk =  F
 maswrk =  T
 .....inside dard end
 .....inside daread start
 idaf   =                    10
 len    =                   100
 nrec   =                    15
 idtyp  =                     0
      /daioln/
 ir     =                     5
 iw     =                     6
 ip     =                     7
      /par   /
 me     =                     0
 master =                     0
 nproc  =                     1
 ibtyp  =                     1
 iptim  =                     0
 goparr =  F
 dskwrk =  F
 maswrk =  T
 .....inside daread end
 .....inside dard start
 len    =                   100
 ns     =                    19
 idtyp  =                     0
      /machin/
 nwdvar =                     1
 maxfm  =             100000000
 maxsm  =                     0
 limfm  =        17558851506825
 limsm  =                     0
      /par   /
 me     =                     0
 master =                     0
 nproc  =                     1
 ibtyp  =                     1
 iptim  =                     0
 goparr =  F
 dskwrk =  F
 maswrk =  T
 .....inside dard end
 .....inside daread start
 idaf   =                    10
 len    =                    10
 nrec   =                    17
 idtyp  =                     0
      /daioln/
 ir     =                     5
 iw     =                     6
 ip     =                     7
      /par   /
 me     =                     0
 master =                     0
 nproc  =                     1
 ibtyp  =                     1
 iptim  =                     0
 goparr =  F
 dskwrk =  F
 maswrk =  T
 .....inside daread end
 .....inside dard start
 len    =                    10
 ns     =                    22
 idtyp  =                     0
      /machin/
 nwdvar =                     1
 maxfm  =             100000000
 maxsm  =                     0
 limfm  =        17558851506825
 limsm  =                     0
      /par   /
 me     =                     0
 master =                     0
 nproc  =                     1
 ibtyp  =                     1
 iptim  =                     0
 goparr =  F
 dskwrk =  F
 maswrk =  T
 .....inside dard end

 ITER EX DEM     TOTAL ENERGY        E CHANGE  DENSITY CHANGE     ORB. GRAD
   1  0  0       -1.1170159288    -1.1170159288   0.077786336   0.000000000
          ---------------START SECOND ORDER SCF---------------
   2  1  0       -1.1280638851    -0.0110479563   0.015263403   0.013701559
   3  2  0       -1.1284894708    -0.0004255856   0.003637925   0.002489143
   4  3  0       -1.1285057279    -0.0000162571   0.000005604   0.000023904
   5  4  0       -1.1285057284    -0.0000000006   0.000000815   0.000002736
   6  5  0       -1.1285057284    -0.0000000000   0.000000024   0.000000017

          -----------------
          DENSITY CONVERGED
          -----------------
     TIME TO FORM FOCK OPERATORS=       0.0 SECONDS (       0.0 SEC/ITER)
     TIME TO SOLVE SCF EQUATIONS=       0.0 SECONDS (       0.0 SEC/ITER)

 FINAL RHF ENERGY IS       -1.1285057284 AFTER   6 ITERATIONS
 .....inside daread start
 idaf   =                    10
 len    =                   100
 nrec   =                    15
 idtyp  =                     0
      /daioln/
 ir     =                     5
 iw     =                     6
 ip     =                     7
      /par   /
 me     =                     0
 master =                     0
 nproc  =                     1
 ibtyp  =                     1
 iptim  =                     0
 goparr =  F
 dskwrk =  F
 maswrk =  T
 .....inside daread end
 .....inside dard start
 len    =                   100
 ns     =                    19
 idtyp  =                     0
      /machin/
 nwdvar =                     1
 maxfm  =             100000000
 maxsm  =                     0
 limfm  =        17558851506825
 limsm  =                     0
      /par   /
 me     =                     0
 master =                     0
 nproc  =                     1
 ibtyp  =                     1
 iptim  =                     0
 goparr =  F
 dskwrk =  F
 maswrk =  T
 .....inside dard end
 .....inside daread start
 idaf   =                    10
 len    =                    55
 nrec   =                    16
 idtyp  =                     0
      /daioln/
 ir     =                     5
 iw     =                     6
 ip     =                     7
      /par   /
 me     =                     0
 master =                     0
 nproc  =                     1
 ibtyp  =                     1
 iptim  =                     0
 goparr =  F
 dskwrk =  F
 maswrk =  T
 .....inside daread end
 .....inside dard start
 len    =                    55
 ns     =                    21
 idtyp  =                     0
      /machin/
 nwdvar =                     1
 maxfm  =             100000000
 maxsm  =                     0
 limfm  =        17558851506825
 limsm  =                     0
      /par   /
 me     =                     0
 master =                     0
 nproc  =                     1
 ibtyp  =                     1
 iptim  =                     0
 goparr =  F
 dskwrk =  F
 maswrk =  T
 .....inside dard end
 .....inside daread start
 idaf   =                    10
 len    =                    10
 nrec   =                    17
 idtyp  =                     0
      /daioln/
 ir     =                     5
 iw     =                     6
 ip     =                     7
      /par   /
 me     =                     0
 master =                     0
 nproc  =                     1
 ibtyp  =                     1
 iptim  =                     0
 goparr =  F
 dskwrk =  F
 maswrk =  T
 .....inside daread end
 .....inside dard start
 len    =                    10
 ns     =                    22
 idtyp  =                     0
      /machin/
 nwdvar =                     1
 maxfm  =             100000000
 maxsm  =                     0
 limfm  =        17558851506825
 limsm  =                     0
      /par   /
 me     =                     0
 master =                     0
 nproc  =                     1
 ibtyp  =                     1
 iptim  =                     0
 goparr =  F
 dskwrk =  F
 maswrk =  T
 .....inside dard end

 LZ VALUE ANALYSIS FOR THE MOS
 ----------------------------------------
 .....inside daread start
 idaf   =                    10
 len    =                    55
 nrec   =                   379
 idtyp  =                     0
      /daioln/
 ir     =                     5
 iw     =                     6
 ip     =                     7
      /par   /
 me     =                     0
 master =                     0
 nproc  =                     1
 ibtyp  =                     1
 iptim  =                     0
 goparr =  F
 dskwrk =  F
 maswrk =  T
 .....inside daread end
 .....inside dard start
 len    =                    55
 ns     =                    16
 idtyp  =                     0
      /machin/
 nwdvar =                     1
 maxfm  =             100000000
 maxsm  =                     0
 limfm  =        17558851506825
 limsm  =                     0
      /par   /
 me     =                     0
 master =                     0
 nproc  =                     1
 ibtyp  =                     1
 iptim  =                     0
 goparr =  F
 dskwrk =  F
 maswrk =  T
 .....inside dard end
 MO     1 (    1) HAS LZ(WEIGHT)= 0.00(100.0%) 
 MO     2 (    2) HAS LZ(WEIGHT)= 0.00(100.0%) 
 MO     3 (    3) HAS LZ(WEIGHT)= 0.00(100.0%) 
 MO     4 (    4) HAS LZ(WEIGHT)= 0.00(100.0%) 
 MO     5 (    5) HAS LZ(WEIGHT)=-1.00( 50.0%)  1.00( 50.0%) 
 MO     6 (    5) HAS LZ(WEIGHT)=-1.00( 50.0%)  1.00( 50.0%) 
 MO     7 (    6) HAS LZ(WEIGHT)= 0.00(100.0%) 
 MO     8 (    7) HAS LZ(WEIGHT)=-1.00( 50.0%)  1.00( 50.0%) 
 MO     9 (    7) HAS LZ(WEIGHT)=-1.00( 50.0%)  1.00( 50.0%) 
 MO    10 (    8) HAS LZ(WEIGHT)= 0.00(100.0%) 

          ------------
          EIGENVECTORS
          ------------

                      1          2          3          4          5
                   -0.5845     0.1923     0.4857     0.9187     1.2901
                     AG         B1U        AG         B1U        B2U 
    1  H  1  S    0.400582   0.155173  -0.708372  -0.793457   0.000000
    2  H  1  S    0.179961   1.880957   0.727269   1.600618   0.000000
    3  H  1  X   -0.000000  -0.000000  -0.000000   0.000000   0.000000
    4  H  1  Y   -0.000000  -0.000000  -0.000000   0.000000   0.583947
    5  H  1  Z    0.022145   0.013094  -0.016100   0.387137   0.000000
    6  H  2  S    0.400582  -0.155173  -0.708372   0.793457   0.000000
    7  H  2  S    0.179961  -1.880957   0.727269  -1.600618   0.000000
    8  H  2  X   -0.000000  -0.000000  -0.000000   0.000000   0.000000
    9  H  2  Y   -0.000000  -0.000000  -0.000000   0.000000   0.583947
   10  H  2  Z   -0.022145   0.013094   0.016100   0.387137   0.000000

                      6          7          8          9         10
                    1.2901     1.9309     2.0254     2.0254     3.4575
                     B3U        AG         B3G        B2G        B1U 
    1  H  1  S    0.000000  -0.439138  -0.000000  -0.000000   2.425615
    2  H  1  S    0.000000   0.218821  -0.000000  -0.000000   0.097410
    3  H  1  X    0.583947  -0.000000  -0.000000   0.967913  -0.000000
    4  H  1  Y    0.000000  -0.000000   0.967913  -0.000000  -0.000000
    5  H  1  Z    0.000000   0.710841  -0.000000  -0.000000   1.952787
    6  H  2  S    0.000000  -0.439138  -0.000000  -0.000000  -2.425615
    7  H  2  S    0.000000   0.218821  -0.000000  -0.000000  -0.097410
    8  H  2  X    0.583947  -0.000000  -0.000000  -0.967913  -0.000000
    9  H  2  Y    0.000000  -0.000000  -0.967913  -0.000000  -0.000000
   10  H  2  Z    0.000000  -0.710841  -0.000000  -0.000000   1.952787
 ...... END OF RHF CALCULATION ......
 STEP CPU TIME =     0.00 TOTAL CPU TIME =        0.0 (    0.0 MIN)
 TOTAL WALL CLOCK TIME=        0.0 SECONDS, CPU UTILIZATION IS  66.67%

     ----------------------------------------------------------------
     PROPERTY VALUES FOR THE RHF   SELF-CONSISTENT FIELD WAVEFUNCTION
     ----------------------------------------------------------------
 .....inside daread start
 idaf   =                    10
 len    =                   115
 nrec   =                     2
 idtyp  =                     0
      /daioln/
 ir     =                     5
 iw     =                     6
 ip     =                     7
      /par   /
 me     =                     0
 master =                     0
 nproc  =                     1
 ibtyp  =                     1
 iptim  =                     0
 goparr =  F
 dskwrk =  F
 maswrk =  T
 .....inside daread end
 .....inside dard start
 len    =                   115
 ns     =                     9
 idtyp  =                     0
      /machin/
 nwdvar =                     1
 maxfm  =             100000000
 maxsm  =                     0
 limfm  =        17558851506825
 limsm  =                     0
      /par   /
 me     =                     0
 master =                     0
 nproc  =                     1
 ibtyp  =                     1
 iptim  =                     0
 goparr =  F
 dskwrk =  F
 maswrk =  T
 .....inside dard end
 .....inside daread start
 idaf   =                    10
 len    =                    55
 nrec   =                    16
 idtyp  =                     0
      /daioln/
 ir     =                     5
 iw     =                     6
 ip     =                     7
      /par   /
 me     =                     0
 master =                     0
 nproc  =                     1
 ibtyp  =                     1
 iptim  =                     0
 goparr =  F
 dskwrk =  F
 maswrk =  T
 .....inside daread end
 .....inside dard start
 len    =                    55
 ns     =                    21
 idtyp  =                     0
      /machin/
 nwdvar =                     1
 maxfm  =             100000000
 maxsm  =                     0
 limfm  =        17558851506825
 limsm  =                     0
      /par   /
 me     =                     0
 master =                     0
 nproc  =                     1
 ibtyp  =                     1
 iptim  =                     0
 goparr =  F
 dskwrk =  F
 maswrk =  T
 .....inside dard end
 .....inside daread start
 idaf   =                    10
 len    =                    55
 nrec   =                    11
 idtyp  =                     0
      /daioln/
 ir     =                     5
 iw     =                     6
 ip     =                     7
      /par   /
 me     =                     0
 master =                     0
 nproc  =                     1
 ibtyp  =                     1
 iptim  =                     0
 goparr =  F
 dskwrk =  F
 maswrk =  T
 .....inside daread end
 .....inside dard start
 len    =                    55
 ns     =                    12
 idtyp  =                     0
      /machin/
 nwdvar =                     1
 maxfm  =             100000000
 maxsm  =                     0
 limfm  =        17558851506825
 limsm  =                     0
      /par   /
 me     =                     0
 master =                     0
 nproc  =                     1
 ibtyp  =                     1
 iptim  =                     0
 goparr =  F
 dskwrk =  F
 maswrk =  T
 .....inside dard end
 .....inside daread start
 idaf   =                    10
 len    =                    55
 nrec   =                    13
 idtyp  =                     0
      /daioln/
 ir     =                     5
 iw     =                     6
 ip     =                     7
      /par   /
 me     =                     0
 master =                     0
 nproc  =                     1
 ibtyp  =                     1
 iptim  =                     0
 goparr =  F
 dskwrk =  F
 maswrk =  T
 .....inside daread end
 .....inside dard start
 len    =                    55
 ns     =                    14
 idtyp  =                     0
      /machin/
 nwdvar =                     1
 maxfm  =             100000000
 maxsm  =                     0
 limfm  =        17558851506825
 limsm  =                     0
      /par   /
 me     =                     0
 master =                     0
 nproc  =                     1
 ibtyp  =                     1
 iptim  =                     0
 goparr =  F
 dskwrk =  F
 maswrk =  T
 .....inside dard end
 .....inside daread start
 idaf   =                    10
 len    =                    55
 nrec   =                    12
 idtyp  =                     0
      /daioln/
 ir     =                     5
 iw     =                     6
 ip     =                     7
      /par   /
 me     =                     0
 master =                     0
 nproc  =                     1
 ibtyp  =                     1
 iptim  =                     0
 goparr =  F
 dskwrk =  F
 maswrk =  T
 .....inside daread end
 .....inside dard start
 len    =                    55
 ns     =                    13
 idtyp  =                     0
      /machin/
 nwdvar =                     1
 maxfm  =             100000000
 maxsm  =                     0
 limfm  =        17558851506825
 limsm  =                     0
      /par   /
 me     =                     0
 master =                     0
 nproc  =                     1
 ibtyp  =                     1
 iptim  =                     0
 goparr =  F
 dskwrk =  F
 maswrk =  T
 .....inside dard end

          -----------------
          ENERGY COMPONENTS
          -----------------

         WAVEFUNCTION NORMALIZATION =       1.0000000000

                ONE ELECTRON ENERGY =      -2.4685436299
                TWO ELECTRON ENERGY =       0.6497810155
           NUCLEAR REPULSION ENERGY =       0.6902568860
                                      ------------------
                       TOTAL ENERGY =      -1.1285057284

 ELECTRON-ELECTRON POTENTIAL ENERGY =       0.6497810155
  NUCLEUS-ELECTRON POTENTIAL ENERGY =      -3.5422423688
   NUCLEUS-NUCLEUS POTENTIAL ENERGY =       0.6902568860
                                      ------------------
             TOTAL POTENTIAL ENERGY =      -2.2022044673
               TOTAL KINETIC ENERGY =       1.0736987388
                 VIRIAL RATIO (V/T) =       2.0510450349

  ...... PI ENERGY ANALYSIS ......
 .....inside daread start
 idaf   =                    10
 len    =                    55
 nrec   =                    11
 idtyp  =                     0
      /daioln/
 ir     =                     5
 iw     =                     6
 ip     =                     7
      /par   /
 me     =                     0
 master =                     0
 nproc  =                     1
 ibtyp  =                     1
 iptim  =                     0
 goparr =  F
 dskwrk =  F
 maswrk =  T
 .....inside daread end
 .....inside dard start
 len    =                    55
 ns     =                    12
 idtyp  =                     0
      /machin/
 nwdvar =                     1
 maxfm  =             100000000
 maxsm  =                     0
 limfm  =        17558851506825
 limsm  =                     0
      /par   /
 me     =                     0
 master =                     0
 nproc  =                     1
 ibtyp  =                     1
 iptim  =                     0
 goparr =  F
 dskwrk =  F
 maswrk =  T
 .....inside dard end
 .....inside daread start
 idaf   =                    10
 len    =                    55
 nrec   =                    13
 idtyp  =                     0
      /daioln/
 ir     =                     5
 iw     =                     6
 ip     =                     7
      /par   /
 me     =                     0
 master =                     0
 nproc  =                     1
 ibtyp  =                     1
 iptim  =                     0
 goparr =  F
 dskwrk =  F
 maswrk =  T
 .....inside daread end
 .....inside dard start
 len    =                    55
 ns     =                    14
 idtyp  =                     0
      /machin/
 nwdvar =                     1
 maxfm  =             100000000
 maxsm  =                     0
 limfm  =        17558851506825
 limsm  =                     0
      /par   /
 me     =                     0
 master =                     0
 nproc  =                     1
 ibtyp  =                     1
 iptim  =                     0
 goparr =  F
 dskwrk =  F
 maswrk =  T
 .....inside dard end
 .....inside daread start
 idaf   =                    10
 len    =                    55
 nrec   =                    14
 idtyp  =                     0
      /daioln/
 ir     =                     5
 iw     =                     6
 ip     =                     7
      /par   /
 me     =                     0
 master =                     0
 nproc  =                     1
 ibtyp  =                     1
 iptim  =                     0
 goparr =  F
 dskwrk =  F
 maswrk =  T
 .....inside daread end
 .....inside dard start
 len    =                    55
 ns     =                    23
 idtyp  =                     0
      /machin/
 nwdvar =                     1
 maxfm  =             100000000
 maxsm  =                     0
 limfm  =        17558851506825
 limsm  =                     0
      /par   /
 me     =                     0
 master =                     0
 nproc  =                     1
 ibtyp  =                     1
 iptim  =                     0
 goparr =  F
 dskwrk =  F
 maswrk =  T
 .....inside dard end
 .....inside daread start
 idaf   =                    10
 len    =                    55
 nrec   =                    16
 idtyp  =                     0
      /daioln/
 ir     =                     5
 iw     =                     6
 ip     =                     7
      /par   /
 me     =                     0
 master =                     0
 nproc  =                     1
 ibtyp  =                     1
 iptim  =                     0
 goparr =  F
 dskwrk =  F
 maswrk =  T
 .....inside daread end
 .....inside dard start
 len    =                    55
 ns     =                    21
 idtyp  =                     0
      /machin/
 nwdvar =                     1
 maxfm  =             100000000
 maxsm  =                     0
 limfm  =        17558851506825
 limsm  =                     0
      /par   /
 me     =                     0
 master =                     0
 nproc  =                     1
 ibtyp  =                     1
 iptim  =                     0
 goparr =  F
 dskwrk =  F
 maswrk =  T
 .....inside dard end

 ENERGY ANALYSIS:
            FOCK ENERGY=     -1.1689815898
          BARE H ENERGY=     -2.4685436299
     ELECTRONIC ENERGY =     -1.8187626099
         KINETIC ENERGY=      1.0736987388
          N-N REPULSION=      0.6902568860
           TOTAL ENERGY=     -1.1285057239
        SIGMA PART(1+2)=     -1.8187626099
               (K,V1,2)=      1.0736987388     -3.5422423688      0.6497810201
           PI PART(1+2)=      0.0000000000
               (K,V1,2)=      0.0000000000      0.0000000000      0.0000000000
  SIGMA SKELETON, ERROR=     -1.1285057239      0.0000000000
             MIXED PART= 0.00000E+00 0.00000E+00 0.00000E+00 0.00000E+00
 ...... END OF PI ENERGY ANALYSIS ......
 MEMORY ASSIGNEMENT
 I10, I20, I21, I30, I31, I40, I41, I60 =
****************************************************************
 LAST = ********
 .....inside daread start
 idaf   =                    10
 len    =                    55
 nrec   =                    12
 idtyp  =                     0
      /daioln/
 ir     =                     5
 iw     =                     6
 ip     =                     7
      /par   /
 me     =                     0
 master =                     0
 nproc  =                     1
 ibtyp  =                     1
 iptim  =                     0
 goparr =  F
 dskwrk =  F
 maswrk =  T
 .....inside daread end
 .....inside dard start
 len    =                    55
 ns     =                    13
 idtyp  =                     0
      /machin/
 nwdvar =                     1
 maxfm  =             100000000
 maxsm  =                     0
 limfm  =        17558851506825
 limsm  =                     0
      /par   /
 me     =                     0
 master =                     0
 nproc  =                     1
 ibtyp  =                     1
 iptim  =                     0
 goparr =  F
 dskwrk =  F
 maswrk =  T
 .....inside dard end
 .....inside daread start
 idaf   =                    10
 len    =                    55
 nrec   =                    51
 idtyp  =                     0
      /daioln/
 ir     =                     5
 iw     =                     6
 ip     =                     7
      /par   /
 me     =                     0
 master =                     0
 nproc  =                     1
 ibtyp  =                     1
 iptim  =                     0
 goparr =  F
 dskwrk =  F
 maswrk =  T
 .....inside daread end
 .....inside dard start
 len    =                    55
 ns     =                    27
 idtyp  =                     0
      /machin/
 nwdvar =                     1
 maxfm  =             100000000
 maxsm  =                     0
 limfm  =        17558851506825
 limsm  =                     0
      /par   /
 me     =                     0
 master =                     0
 nproc  =                     1
 ibtyp  =                     1
 iptim  =                     0
 goparr =  F
 dskwrk =  F
 maswrk =  T
 .....inside dard end
 .....inside daread start
 idaf   =                    10
 len    =                   100
 nrec   =                    15
 idtyp  =                     0
      /daioln/
 ir     =                     5
 iw     =                     6
 ip     =                     7
      /par   /
 me     =                     0
 master =                     0
 nproc  =                     1
 ibtyp  =                     1
 iptim  =                     0
 goparr =  F
 dskwrk =  F
 maswrk =  T
 .....inside daread end
 .....inside dard start
 len    =                   100
 ns     =                    19
 idtyp  =                     0
      /machin/
 nwdvar =                     1
 maxfm  =             100000000
 maxsm  =                     0
 limfm  =        17558851506825
 limsm  =                     0
      /par   /
 me     =                     0
 master =                     0
 nproc  =                     1
 ibtyp  =                     1
 iptim  =                     0
 goparr =  F
 dskwrk =  F
 maswrk =  T
 .....inside dard end
 .....inside daread start
 idaf   =                    10
 len    =                    10
 nrec   =                    17
 idtyp  =                     0
      /daioln/
 ir     =                     5
 iw     =                     6
 ip     =                     7
      /par   /
 me     =                     0
 master =                     0
 nproc  =                     1
 ibtyp  =                     1
 iptim  =                     0
 goparr =  F
 dskwrk =  F
 maswrk =  T
 .....inside daread end
 .....inside dard start
 len    =                    10
 ns     =                    22
 idtyp  =                     0
      /machin/
 nwdvar =                     1
 maxfm  =             100000000
 maxsm  =                     0
 limfm  =        17558851506825
 limsm  =                     0
      /par   /
 me     =                     0
 master =                     0
 nproc  =                     1
 ibtyp  =                     1
 iptim  =                     0
 goparr =  F
 dskwrk =  F
 maswrk =  T
 .....inside dard end
 .....inside daread start
 idaf   =                    10
 len    =                    55
 nrec   =                    51
 idtyp  =                     0
      /daioln/
 ir     =                     5
 iw     =                     6
 ip     =                     7
      /par   /
 me     =                     0
 master =                     0
 nproc  =                     1
 ibtyp  =                     1
 iptim  =                     0
 goparr =  F
 dskwrk =  F
 maswrk =  T
 .....inside daread end
 .....inside dard start
 len    =                    55
 ns     =                    27
 idtyp  =                     0
      /machin/
 nwdvar =                     1
 maxfm  =             100000000
 maxsm  =                     0
 limfm  =        17558851506825
 limsm  =                     0
      /par   /
 me     =                     0
 master =                     0
 nproc  =                     1
 ibtyp  =                     1
 iptim  =                     0
 goparr =  F
 dskwrk =  F
 maswrk =  T
 .....inside dard end
 .....inside daread start
 idaf   =                    10
 len    =                    55
 nrec   =                    16
 idtyp  =                     0
      /daioln/
 ir     =                     5
 iw     =                     6
 ip     =                     7
      /par   /
 me     =                     0
 master =                     0
 nproc  =                     1
 ibtyp  =                     1
 iptim  =                     0
 goparr =  F
 dskwrk =  F
 maswrk =  T
 .....inside daread end
 .....inside dard start
 len    =                    55
 ns     =                    21
 idtyp  =                     0
      /machin/
 nwdvar =                     1
 maxfm  =             100000000
 maxsm  =                     0
 limfm  =        17558851506825
 limsm  =                     0
      /par   /
 me     =                     0
 master =                     0
 nproc  =                     1
 ibtyp  =                     1
 iptim  =                     0
 goparr =  F
 dskwrk =  F
 maswrk =  T
 .....inside dard end

          ---------------------------------------
          MULLIKEN AND LOWDIN POPULATION ANALYSES
          ---------------------------------------
 MEMORY ASSIGNMENT
 I10, I30, I40, I50, I60, I70, I41, I51, I61, I71 =
********************************************************************************
 LAST = ********
 .....inside daread start
 idaf   =                    10
 len    =                    55
 nrec   =                    12
 idtyp  =                     0
      /daioln/
 ir     =                     5
 iw     =                     6
 ip     =                     7
      /par   /
 me     =                     0
 master =                     0
 nproc  =                     1
 ibtyp  =                     1
 iptim  =                     0
 goparr =  F
 dskwrk =  F
 maswrk =  T
 .....inside daread end
 .....inside dard start
 len    =                    55
 ns     =                    13
 idtyp  =                     0
      /machin/
 nwdvar =                     1
 maxfm  =             100000000
 maxsm  =                     0
 limfm  =        17558851506825
 limsm  =                     0
      /par   /
 me     =                     0
 master =                     0
 nproc  =                     1
 ibtyp  =                     1
 iptim  =                     0
 goparr =  F
 dskwrk =  F
 maswrk =  T
 .....inside dard end
 .....inside daread start
 idaf   =                    10
 len    =                    55
 nrec   =                    16
 idtyp  =                     0
      /daioln/
 ir     =                     5
 iw     =                     6
 ip     =                     7
      /par   /
 me     =                     0
 master =                     0
 nproc  =                     1
 ibtyp  =                     1
 iptim  =                     0
 goparr =  F
 dskwrk =  F
 maswrk =  T
 .....inside daread end
 .....inside dard start
 len    =                    55
 ns     =                    21
 idtyp  =                     0
      /machin/
 nwdvar =                     1
 maxfm  =             100000000
 maxsm  =                     0
 limfm  =        17558851506825
 limsm  =                     0
      /par   /
 me     =                     0
 master =                     0
 nproc  =                     1
 ibtyp  =                     1
 iptim  =                     0
 goparr =  F
 dskwrk =  F
 maswrk =  T
 .....inside dard end

          ----- MULLIKEN ATOMIC OVERLAP POPULATIONS -----
          (OFF-DIAGONAL ELEMENTS NEED TO BE MULTIPLIED BY 2)

                      1          2          3          4          5

    1  H  1  S    0.320932
    2  H  1  S    0.098742   0.064772
    3  H  1  X    0.000000   0.000000   0.000000
    4  H  1  Y    0.000000   0.000000   0.000000   0.000000
    5  H  1  Z   -0.000000   0.000000   0.000000   0.000000   0.000981
    6  H  2  S    0.176298   0.080401   0.000000   0.000000   0.009415
    7  H  2  S    0.080401   0.056988   0.000000   0.000000   0.001335
    8  H  2  X    0.000000   0.000000   0.000000   0.000000   0.000000
    9  H  2  Y    0.000000   0.000000   0.000000   0.000000   0.000000
   10  H  2  Z    0.009415   0.001335   0.000000   0.000000   0.000241

                      6          7          8          9         10

    6  H  2  S    0.320932
    7  H  2  S    0.098742   0.064772
    8  H  2  X    0.000000   0.000000   0.000000
    9  H  2  Y    0.000000   0.000000   0.000000   0.000000
   10  H  2  Z   -0.000000  -0.000000   0.000000   0.000000   0.000981
 .....inside daread start
 idaf   =                    10
 len    =                    10
 nrec   =                    69
 idtyp  =                     0
      /daioln/
 ir     =                     5
 iw     =                     6
 ip     =                     7
      /par   /
 me     =                     0
 master =                     0
 nproc  =                     1
 ibtyp  =                     1
 iptim  =                     0
 goparr =  F
 dskwrk =  F
 maswrk =  T
 .....inside daread end
 .....inside dard start
 len    =                    10
 ns     =                    28
 idtyp  =                     0
      /machin/
 nwdvar =                     1
 maxfm  =             100000000
 maxsm  =                     0
 limfm  =        17558851506825
 limsm  =                     0
      /par   /
 me     =                     0
 master =                     0
 nproc  =                     1
 ibtyp  =                     1
 iptim  =                     0
 goparr =  F
 dskwrk =  F
 maswrk =  T
 .....inside dard end

               ----- POPULATIONS IN EACH AO -----
                             MULLIKEN      LOWDIN
              1  H  1  S      0.68579     0.58698
              2  H  1  S      0.30224     0.38298
              3  H  1  X      0.00000     0.00000
              4  H  1  Y      0.00000     0.00000
              5  H  1  Z      0.01197     0.03004
              6  H  2  S      0.68579     0.58698
              7  H  2  S      0.30224     0.38298
              8  H  2  X      0.00000     0.00000
              9  H  2  Y      0.00000     0.00000
             10  H  2  Z      0.01197     0.03004

          ----- MULLIKEN ATOMIC OVERLAP POPULATIONS -----
          (OFF-DIAGONAL ELEMENTS NEED TO BE MULTIPLIED BY 2)

             1           2

    1    0.5841692
    2    0.4158308   0.5841692

          TOTAL MULLIKEN AND LOWDIN ATOMIC POPULATIONS
       ATOM         MULL.POP.                    LOW.POP.

          TOTAL MULLIKEN AND LOWDIN ATOMIC POPULATIONS
       ATOM         MULL.POP.    CHARGE          LOW.POP.     CHARGE
    1 H             1.000000                     1.000000
    1 H             1.000000    0.000000         1.000000   -0.000000
    2 H             1.000000                     1.000000
    2 H             1.000000    0.000000         1.000000   -0.000000

          ---------------------
          ELECTROSTATIC MOMENTS
          ---------------------

 .....inside daread start
 idaf   =                    10
 len    =                    55
 nrec   =                    16
 idtyp  =                     0
      /daioln/
 ir     =                     5
 iw     =                     6
 ip     =                     7
      /par   /
 me     =                     0
 master =                     0
 nproc  =                     1
 ibtyp  =                     1
 iptim  =                     0
 goparr =  F
 dskwrk =  F
 maswrk =  T
 .....inside daread end
 .....inside dard start
 len    =                    55
 ns     =                    21
 idtyp  =                     0
      /machin/
 nwdvar =                     1
 maxfm  =             100000000
 maxsm  =                     0
 limfm  =        17558851506825
 limsm  =                     0
      /par   /
 me     =                     0
 master =                     0
 nproc  =                     1
 ibtyp  =                     1
 iptim  =                     0
 goparr =  F
 dskwrk =  F
 maswrk =  T
 .....inside dard end
 .....inside daread start
 idaf   =                    10
 len    =                    55
 nrec   =                    12
 idtyp  =                     0
      /daioln/
 ir     =                     5
 iw     =                     6
 ip     =                     7
      /par   /
 me     =                     0
 master =                     0
 nproc  =                     1
 ibtyp  =                     1
 iptim  =                     0
 goparr =  F
 dskwrk =  F
 maswrk =  T
 .....inside daread end
 .....inside dard start
 len    =                    55
 ns     =                    13
 idtyp  =                     0
      /machin/
 nwdvar =                     1
 maxfm  =             100000000
 maxsm  =                     0
 limfm  =        17558851506825
 limsm  =                     0
      /par   /
 me     =                     0
 master =                     0
 nproc  =                     1
 ibtyp  =                     1
 iptim  =                     0
 goparr =  F
 dskwrk =  F
 maswrk =  T
 .....inside dard end
 POINT   1           X           Y           Z (BOHR)    CHARGE
                 0.000000    0.000000    0.000000        0.00 (A.U.)
         DX          DY          DZ         /D/  (DEBYE)
     0.000000    0.000000   -0.000000    0.000000
 ...... END OF PROPERTY EVALUATION ......
 STEP CPU TIME =     0.00 TOTAL CPU TIME =        0.0 (    0.0 MIN)
 TOTAL WALL CLOCK TIME=        0.0 SECONDS, CPU UTILIZATION IS  66.67%

 GUGA CI OPTIONS      NRNFG     NPFLG
 ------------------------------------

 -DRT- TABLE          1         0
 TRANSFORMATION       1         2
 ENERGY MATRIX        1         0
 DIAGONALIZATION      1         0
 1E-DENSITY MATRIX    1         0
 2E-DENSITY MATRIX    0         0
 LAGRANGIAN MATRIX    0         0
------------------------------------

 -DRT- TABLE          0         0
 TRANSFORMATION   

          -----------------------     ----------------------------
          GUGA DISTINCT ROW TABLE     WRITTEN BY B.R.BROOKS,P.SAXE
          -----------------------     ----------------------------

      GROUP=D2H          NPRT=       0
       FORS=       F   INTACT=       F
       FOCI=       F   MXNINT=   50000
       SOCI=       F   MXNEME=   10000
     IEXCIT=       2

      -CORE-    -INTERNAL-  -EXTERNAL-
     NFZC=   0   NDOC=   1   NEXT=   0
     NMCC=   0   NAOS=   0   NFZV=   0
                 NBOS=   0
                 NALP=   0
                 NVAL=   9

 THE MAXIMUM ELECTRON EXCITATION WILL BE   2
 .....inside daread start
 idaf   =                    10
 len    =                    55
 nrec   =                    12
 idtyp  =                     0
      /daioln/
 ir     =                     5
 iw     =                     6
 ip     =                     7
      /par   /
 me     =                     0
 master =                     0
 nproc  =                     1
 ibtyp  =                     1
 iptim  =                     0
 goparr =  F
 dskwrk =  T
 maswrk =  T
 .....inside daread end
 .....inside dard start
 len    =                    55
 ns     =                    13
 idtyp  =                     0
      /machin/
 nwdvar =                     1
 maxfm  =             100000000
 maxsm  =                     0
 limfm  =        17558851506825
 limsm  =                     0
      /par   /
 me     =                     0
 master =                     0
 nproc  =                     1
 ibtyp  =                     1
 iptim  =                     0
 goparr =  F
 dskwrk =  T
 maswrk =  T
 .....inside dard end
 .....inside daread start
 idaf   =                    10
 len    =                   100
 nrec   =                    15
 idtyp  =                     0
      /daioln/
 ir     =                     5
 iw     =                     6
 ip     =                     7
      /par   /
 me     =                     0
 master =                     0
 nproc  =                     1
 ibtyp  =                     1
 iptim  =                     0
 goparr =  F
 dskwrk =  T
 maswrk =  T
 .....inside daread end
 .....inside dard start
 len    =                   100
 ns     =                    19
 idtyp  =                     0
      /machin/
 nwdvar =                     1
 maxfm  =             100000000
 maxsm  =                     0
 limfm  =        17558851506825
 limsm  =                     0
      /par   /
 me     =                     0
 master =                     0
 nproc  =                     1
 ibtyp  =                     1
 iptim  =                     0
 goparr =  F
 dskwrk =  T
 maswrk =  T
 .....inside dard end
 .....inside daread start
 idaf   =                    10
 len    =                   100
 nrec   =                    45
 idtyp  =                     0
      /daioln/
 ir     =                     5
 iw     =                     6
 ip     =                     7
      /par   /
 me     =                     0
 master =                     0
 nproc  =                     1
 ibtyp  =                     1
 iptim  =                     0
 goparr =  F
 dskwrk =  T
 maswrk =  T
 .....inside daread end
 .....inside dard start
 len    =                   100
 ns     =                    18
 idtyp  =                     0
      /machin/
 nwdvar =                     1
 maxfm  =             100000000
 maxsm  =                     0
 limfm  =        17558851506825
 limsm  =                     0
      /par   /
 me     =                     0
 master =                     0
 nproc  =                     1
 ibtyp  =                     1
 iptim  =                     0
 goparr =  F
 dskwrk =  T
 maswrk =  T
 .....inside dard end

 SYMMETRIES FOR THE   0 CORE,  10 ACTIVE,   0 EXTERNAL MO-S ARE
   ACTIVE= AG    B1U   AG    B1U   B2U   B3U   AG    B3G   B2G   B1U 
           DOC   VAL   VAL   VAL   VAL   VAL   VAL   VAL   VAL   VAL 

 MOLECULAR CHARGE          =    0
 NUMBER OF ALPHA ELECTRONS =    1
 NUMBER OF  BETA ELECTRONS =    1

 THE ELECTRONIC STATE IS  1-AG  

 THE DISTINCT ROW TABLE HAS        31 ROWS.
  THE WAVEFUNCTION CONTAINS        16 WALKS (CSF-S).

 TOTAL NUMBER OF INTEGRALS =        348
 NUMBER OF INTEGRALS/GROUP =        348
 NUMBER OF INTEGRAL GROUPS =          1
 MAXIMUM RECORD SIZES ARE     500 FOR UNIT 11      22 FOR UNIT 12
                            30001 FOR UNIT 15   30001 FOR UNIT 16
 ...... END OF -DRT- GENERATION ...... 
 STEP CPU TIME =     0.41 TOTAL CPU TIME =        0.4 (    0.0 MIN)
 TOTAL WALL CLOCK TIME=        0.4 SECONDS, CPU UTILIZATION IS  97.73%

     --------------------------------------------
     PARTIAL TWO ELECTRON INTEGRAL TRANSFORMATION
     --------------------------------------------

 NUMBER OF CORE MOLECULAR ORBITALS     =    0
 NUMBER OF OCCUPIED MOLECULAR ORBITALS =   10
 TOTAL NUMBER OF MOLECULAR ORBITALS    =   10
 TOTAL NUMBER OF ATOMIC ORBITALS       =   10
 THRESHOLD FOR KEEPING TRANSFORMED 2E- INTEGRALS = 1.000E-09
 AO INTEGRALS WILL BE READ IN FROM DISK...
 .....inside daread start
 idaf   =                    10
 len    =                   100
 nrec   =                    15
 idtyp  =                     0
      /daioln/
 ir     =                     5
 iw     =                     6
 ip     =                     7
      /par   /
 me     =                     0
 master =                     0
 nproc  =                     1
 ibtyp  =                     1
 iptim  =                     0
 goparr =  F
 dskwrk =  T
 maswrk =  T
 .....inside daread end
 .....inside dard start
 len    =                   100
 ns     =                    19
 idtyp  =                     0
      /machin/
 nwdvar =                     1
 maxfm  =             100000000
 maxsm  =                     0
 limfm  =        17558851506825
 limsm  =                     0
      /par   /
 me     =                     0
 master =                     0
 nproc  =                     1
[...]
      /machin/
 nwdvar =                     1
 maxfm  =             100000000
 maxsm  =                     0
 limfm  =        17558851506825
 limsm  =                     0
      /par   /
 me     =                     0
 master =                     0
 nproc  =                     1
 ibtyp  =                     1
 iptim  =                     0
 goparr =  F
 dskwrk =  T
 maswrk =  T
 .....inside dard end
 .....inside daread start
 idaf   =                    10
 len    =                    55
 nrec   =                    13
 idtyp  =                     0
      /daioln/
 ir     =                     5
 iw     =                     6
 ip     =                     7
      /par   /
 me     =                     0
 master =                     0
 nproc  =                     1
 ibtyp  =                     1
 iptim  =                     0
 goparr =  F
 dskwrk =  T
 maswrk =  T
 .....inside daread end
 .....inside dard start
 len    =                    55
 ns     =                    14
 idtyp  =                     0
      /machin/
 nwdvar =                     1
 maxfm  =             100000000
 maxsm  =                     0
 limfm  =        17558851506825
 limsm  =                     0
      /par   /
 me     =                     0
 master =                     0
 nproc  =                     1
 ibtyp  =                     1
 iptim  =                     0
 goparr =  F
 dskwrk =  T
 maswrk =  T
 .....inside dard end
 .....inside daread start
 idaf   =                    10
 len    =                    55
 nrec   =                    12
 idtyp  =                     0
      /daioln/
 ir     =                     5
 iw     =                     6
 ip     =                     7
      /par   /
 me     =                     0
 master =                     0
 nproc  =                     1
 ibtyp  =                     1
 iptim  =                     0
 goparr =  F
 dskwrk =  T
 maswrk =  T
 .....inside daread end
 .....inside dard start
 len    =                    55
 ns     =                    13
 idtyp  =                     0
      /machin/
 nwdvar =                     1
 maxfm  =             100000000
 maxsm  =                     0
 limfm  =        17558851506825
 limsm  =                     0
      /par   /
 me     =                     0
 master =                     0
 nproc  =                     1
 ibtyp  =                     1
 iptim  =                     0
 goparr =  F
 dskwrk =  T
 maswrk =  T
 .....inside dard end

          -----------------
          ENERGY COMPONENTS
          -----------------

         WAVEFUNCTION NORMALIZATION =       1.0000000000

                ONE ELECTRON ENERGY =      -2.4399864886
                TWO ELECTRON ENERGY =       0.5860779441
           NUCLEAR REPULSION ENERGY =       0.6902568860
                                      ------------------
                       TOTAL ENERGY =      -1.1636516585

 ELECTRON-ELECTRON POTENTIAL ENERGY =       0.5860779441
  NUCLEUS-ELECTRON POTENTIAL ENERGY =      -3.5568488681
   NUCLEUS-NUCLEUS POTENTIAL ENERGY =       0.6902568860
                                      ------------------
             TOTAL POTENTIAL ENERGY =      -2.2805140380
               TOTAL KINETIC ENERGY =       1.1168623795
                 VIRIAL RATIO (V/T) =       2.0418935044
 MEMORY ASSIGNEMENT
 I10, I20, I21, I30, I31, I40, I41, I60 =
****************************************************************
 LAST = ********
 .....inside daread start
 idaf   =                    10
 len    =                    55
 nrec   =                    12
 idtyp  =                     0
      /daioln/
 ir     =                     5
 iw     =                     6
 ip     =                     7
      /par   /
 me     =                     0
 master =                     0
 nproc  =                     1
 ibtyp  =                     1
 iptim  =                     0
 goparr =  F
 dskwrk =  T
 maswrk =  T
 .....inside daread end
 .....inside dard start
 len    =                    55
 ns     =                    13
 idtyp  =                     0
      /machin/
 nwdvar =                     1
 maxfm  =             100000000
 maxsm  =                     0
 limfm  =        17558851506825
 limsm  =                     0
      /par   /
 me     =                     0
 master =                     0
 nproc  =                     1
 ibtyp  =                     1
 iptim  =                     0
 goparr =  F
 dskwrk =  T
 maswrk =  T
 .....inside dard end
 .....inside daread start
 idaf   =                    10
 len    =                    55
 nrec   =                    51
 idtyp  =                     0
      /daioln/
 ir     =                     5
 iw     =                     6
 ip     =                     7
      /par   /
 me     =                     0
 master =                     0
 nproc  =                     1
 ibtyp  =                     1
 iptim  =                     0
 goparr =  F
 dskwrk =  T
 maswrk =  T
 .....inside daread end
 .....inside dard start
 len    =                    55
 ns     =                    27
 idtyp  =                     0
      /machin/
 nwdvar =                     1
 maxfm  =             100000000
 maxsm  =                     0
 limfm  =        17558851506825
 limsm  =                     0
      /par   /
 me     =                     0
 master =                     0
 nproc  =                     1
 ibtyp  =                     1
 iptim  =                     0
 goparr =  F
 dskwrk =  T
 maswrk =  T
 .....inside dard end
 .....inside daread start
 idaf   =                    10
 len    =                   100
 nrec   =                    15
 idtyp  =                     0
      /daioln/
 ir     =                     5
 iw     =                     6
 ip     =                     7
      /par   /
 me     =                     0
 master =                     0
 nproc  =                     1
 ibtyp  =                     1
 iptim  =                     0
 goparr =  F
 dskwrk =  T
 maswrk =  T
 .....inside daread end
 .....inside dard start
 len    =                   100
 ns     =                    19
 idtyp  =                     0
      /machin/
 nwdvar =                     1
 maxfm  =             100000000
 maxsm  =                     0
 limfm  =        17558851506825
 limsm  =                     0
      /par   /
 me     =                     0
 master =                     0
 nproc  =                     1
 ibtyp  =                     1
 iptim  =                     0
 goparr =  F
 dskwrk =  T
 maswrk =  T
 .....inside dard end
 .....inside daread start
 idaf   =                    10
 len    =                    10
 nrec   =                    17
 idtyp  =                     0
      /daioln/
 ir     =                     5
 iw     =                     6
 ip     =                     7
      /par   /
 me     =                     0
 master =                     0
 nproc  =                     1
 ibtyp  =                     1
 iptim  =                     0
 goparr =  F
 dskwrk =  T
 maswrk =  T
 .....inside daread end
 .....inside dard start
 len    =                    10
 ns     =                    22
 idtyp  =                     0
      /machin/
 nwdvar =                     1
 maxfm  =             100000000
 maxsm  =                     0
 limfm  =        17558851506825
 limsm  =                     0
      /par   /
 me     =                     0
 master =                     0
 nproc  =                     1
 ibtyp  =                     1
 iptim  =                     0
 goparr =  F
 dskwrk =  T
 maswrk =  T
 .....inside dard end
 .....inside daread start
 idaf   =                    10
 len    =                    55
 nrec   =                    51
 idtyp  =                     0
      /daioln/
 ir     =                     5
 iw     =                     6
 ip     =                     7
      /par   /
 me     =                     0
 master =                     0
 nproc  =                     1
 ibtyp  =                     1
 iptim  =                     0
 goparr =  F
 dskwrk =  T
 maswrk =  T
 .....inside daread end
 .....inside dard start
 len    =                    55
 ns     =                    27
 idtyp  =                     0
      /machin/
 nwdvar =                     1
 maxfm  =             100000000
 maxsm  =                     0
 limfm  =        17558851506825
 limsm  =                     0
      /par   /
 me     =                     0
 master =                     0
 nproc  =                     1
 ibtyp  =                     1
 iptim  =                     0
 goparr =  F
 dskwrk =  T
 maswrk =  T
 .....inside dard end
 .....inside daread start
 idaf   =                    10
 len    =                    55
 nrec   =                    16
 idtyp  =                     0
      /daioln/
 ir     =                     5
 iw     =                     6
 ip     =                     7
      /par   /
 me     =                     0
 master =                     0
 nproc  =                     1
 ibtyp  =                     1
 iptim  =                     0
 goparr =  F
 dskwrk =  T
 maswrk =  T
 .....inside daread end
 .....inside dard start
 len    =                    55
 ns     =                    21
 idtyp  =                     0
      /machin/
 nwdvar =                     1
 maxfm  =             100000000
 maxsm  =                     0
 limfm  =        17558851506825
 limsm  =                     0
      /par   /
 me     =                     0
 master =                     0
 nproc  =                     1
 ibtyp  =                     1
 iptim  =                     0
 goparr =  F
 dskwrk =  T
 maswrk =  T
 .....inside dard end

          ---------------------------------------
          MULLIKEN AND LOWDIN POPULATION ANALYSES
          ---------------------------------------
 MEMORY ASSIGNMENT
 I10, I30, I40, I50, I60, I70, I41, I51, I61, I71 =
********************************************************************************
 LAST = ********
 .....inside daread start
 idaf   =                    10
 len    =                    55
 nrec   =                    12
 idtyp  =                     0
      /daioln/
 ir     =                     5
 iw     =                     6
 ip     =                     7
      /par   /
 me     =                     0
 master =                     0
 nproc  =                     1
 ibtyp  =                     1
 iptim  =                     0
 goparr =  F
 dskwrk =  T
 maswrk =  T
 .....inside daread end
 .....inside dard start
 len    =                    55
 ns     =                    13
 idtyp  =                     0
      /machin/
 nwdvar =                     1
 maxfm  =             100000000
 maxsm  =                     0
 limfm  =        17558851506825
 limsm  =                     0
      /par   /
 me     =                     0
 master =                     0
 nproc  =                     1
 ibtyp  =                     1
 iptim  =                     0
 goparr =  F
 dskwrk =  T
 maswrk =  T
 .....inside dard end
 .....inside daread start
 idaf   =                    10
 len    =                    55
 nrec   =                    16
 idtyp  =                     0
      /daioln/
 ir     =                     5
 iw     =                     6
 ip     =                     7
      /par   /
 me     =                     0
 master =                     0
 nproc  =                     1
 ibtyp  =                     1
 iptim  =                     0
 goparr =  F
 dskwrk =  T
 maswrk =  T
 .....inside daread end
 .....inside dard start
 len    =                    55
 ns     =                    21
 idtyp  =                     0
      /machin/
 nwdvar =                     1
 maxfm  =             100000000
 maxsm  =                     0
 limfm  =        17558851506825
 limsm  =                     0
      /par   /
 me     =                     0
 master =                     0
 nproc  =                     1
 ibtyp  =                     1
 iptim  =                     0
 goparr =  F
 dskwrk =  T
 maswrk =  T
 .....inside dard end

          ----- MULLIKEN ATOMIC OVERLAP POPULATIONS -----
          (OFF-DIAGONAL ELEMENTS NEED TO BE MULTIPLIED BY 2)

                      1          2          3          4          5

    1  H  1  S    0.347830
    2  H  1  S    0.097358   0.064040
    3  H  1  X    0.000000   0.000000   0.001199
    4  H  1  Y    0.000000   0.000000   0.000000   0.001199
    5  H  1  Z   -0.000000   0.000000   0.000000   0.000000   0.001415
    6  H  2  S    0.168568   0.073974   0.000000   0.000000   0.008556
    7  H  2  S    0.073974   0.052866   0.000000   0.000000   0.001015
    8  H  2  X    0.000000   0.000000   0.000421   0.000000   0.000000
    9  H  2  Y    0.000000   0.000000   0.000000   0.000421   0.000000
   10  H  2  Z    0.008556   0.001015   0.000000   0.000000   0.000236

                      6          7          8          9         10

    6  H  2  S    0.347830
    7  H  2  S    0.097358   0.064040
    8  H  2  X    0.000000   0.000000   0.001199
    9  H  2  Y    0.000000   0.000000   0.000000   0.001199
   10  H  2  Z   -0.000000  -0.000000   0.000000   0.000000   0.001415
 .....inside daread start
 idaf   =                    10
 len    =                    10
 nrec   =                    69
 idtyp  =                     0
      /daioln/
 ir     =                     5
 iw     =                     6
 ip     =                     7
      /par   /
 me     =                     0
 master =                     0
 nproc  =                     1
 ibtyp  =                     1
 iptim  =                     0
 goparr =  F
 dskwrk =  T
 maswrk =  T
 .....inside daread end
 .....inside dard start
 len    =                    10
 ns     =                    28
 idtyp  =                     0
      /machin/
 nwdvar =                     1
 maxfm  =             100000000
 maxsm  =                     0
 limfm  =        17558851506825
 limsm  =                     0
      /par   /
 me     =                     0
 master =                     0
 nproc  =                     1
 ibtyp  =                     1
 iptim  =                     0
 goparr =  F
 dskwrk =  T
 maswrk =  T
 .....inside dard end

               ----- POPULATIONS IN EACH AO -----
                             MULLIKEN      LOWDIN
              1  H  1  S      0.69629     0.59111
              2  H  1  S      0.28925     0.37195
              3  H  1  X      0.00162     0.00162
              4  H  1  Y      0.00162     0.00162
              5  H  1  Z      0.01122     0.03370
              6  H  2  S      0.69629     0.59111
              7  H  2  S      0.28925     0.37195
              8  H  2  X      0.00162     0.00162
              9  H  2  Y      0.00162     0.00162
             10  H  2  Z      0.01122     0.03370

          ----- MULLIKEN ATOMIC OVERLAP POPULATIONS -----
          (OFF-DIAGONAL ELEMENTS NEED TO BE MULTIPLIED BY 2)

             1           2

    1    0.6103979
    2    0.3896021   0.6103979

          TOTAL MULLIKEN AND LOWDIN ATOMIC POPULATIONS
       ATOM         MULL.POP.                    LOW.POP.

          TOTAL MULLIKEN AND LOWDIN ATOMIC POPULATIONS
       ATOM         MULL.POP.    CHARGE          LOW.POP.     CHARGE
    1 H             1.000000                     1.000000
    1 H             1.000000    0.000000         1.000000   -0.000000
    2 H             1.000000                     1.000000
    2 H             1.000000   -0.000000         1.000000   -0.000000

          ---------------------
          ELECTROSTATIC MOMENTS
          ---------------------

 .....inside daread start
 idaf   =                    10
 len    =                    55
 nrec   =                    16
 idtyp  =                     0
      /daioln/
 ir     =                     5
 iw     =                     6
 ip     =                     7
      /par   /
 me     =                     0
 master =                     0
 nproc  =                     1
 ibtyp  =                     1
 iptim  =                     0
 goparr =  F
 dskwrk =  T
 maswrk =  T
 .....inside daread end
 .....inside dard start
 len    =                    55
 ns     =                    21
 idtyp  =                     0
      /machin/
 nwdvar =                     1
 maxfm  =             100000000
 maxsm  =                     0
 limfm  =        17558851506825
 limsm  =                     0
      /par   /
 me     =                     0
 master =                     0
 nproc  =                     1
 ibtyp  =                     1
 iptim  =                     0
 goparr =  F
 dskwrk =  T
 maswrk =  T
 .....inside dard end
 .....inside daread start
 idaf   =                    10
 len    =                    55
 nrec   =                    12
 idtyp  =                     0
      /daioln/
 ir     =                     5
 iw     =                     6
 ip     =                     7
      /par   /
 me     =                     0
 master =                     0
 nproc  =                     1
 ibtyp  =                     1
 iptim  =                     0
 goparr =  F
 dskwrk =  T
 maswrk =  T
 .....inside daread end
 .....inside dard start
 len    =                    55
 ns     =                    13
 idtyp  =                     0
      /machin/
 nwdvar =                     1
 maxfm  =             100000000
 maxsm  =                     0
 limfm  =        17558851506825
 limsm  =                     0
      /par   /
 me     =                     0
 master =                     0
 nproc  =                     1
 ibtyp  =                     1
 iptim  =                     0
 goparr =  F
 dskwrk =  T
 maswrk =  T
 .....inside dard end
 POINT   1           X           Y           Z (BOHR)    CHARGE
                 0.000000    0.000000    0.000000       -0.00 (A.U.)
         DX          DY          DZ         /D/  (DEBYE)
     0.000000    0.000000   -0.000000    0.000000
 ...... END OF PROPERTY EVALUATION ......
 STEP CPU TIME =     0.00 TOTAL CPU TIME =        0.4 (    0.0 MIN)
 TOTAL WALL CLOCK TIME=        0.5 SECONDS, CPU UTILIZATION IS  97.78%
               580000  WORDS OF DYNAMIC MEMORY USED
 EXECUTION OF GAMESS TERMINATED NORMALLY Mon May 13 15:33:44 2013
 DDI: 263624 bytes (0.3 MB / 0 MWords) used by master data server.

 ----------------------------------------
 CPU timing information for all processes
 ========================================
 0: 0.156 + 0.384 = 0.540
 ----------------------------------------
 ddikick.x: exited gracefully.
unset echo
----- accounting info -----
Files used on the master node doreen were:
-rw-rw-r-- 1 lmentel lmentel    4641 maj 13 15:33 /home/lmentel/scratch/h2_cc-pvdz.dat
-rw-r--r-- 1 lmentel lmentel     690 maj 13 15:33 /home/lmentel/scratch/h2_cc-pvdz.F05
-rw-rw-r-- 1 lmentel lmentel  180016 maj 13 15:33 /home/lmentel/scratch/h2_cc-pvdz.F08
-rw-rw-r-- 1 lmentel lmentel  180464 maj 13 15:33 /home/lmentel/scratch/h2_cc-pvdz.F09
-rw-rw-r-- 1 lmentel lmentel 1243360 maj 13 15:33 /home/lmentel/scratch/h2_cc-pvdz.F10
-rw-rw-r-- 1 lmentel lmentel  280296 maj 13 15:33 /home/lmentel/scratch/h2_cc-pvdz.F11
-rw-rw-r-- 1 lmentel lmentel     320 maj 13 15:33 /home/lmentel/scratch/h2_cc-pvdz.F12
-rw-rw-r-- 1 lmentel lmentel  400008 maj 13 15:33 /home/lmentel/scratch/h2_cc-pvdz.F14
-rw-rw-r-- 1 lmentel lmentel  160352 maj 13 15:33 /home/lmentel/scratch/h2_cc-pvdz.F15
-rw-rw-r-- 1 lmentel lmentel  200216 maj 13 15:33 /home/lmentel/scratch/h2_cc-pvdz.F16
pwd
cp /home/lmentel/scratch/h2_cc-pvdz.F08 /home/lmentel/work/mercurial_repo/Vconstr/test/h2/h2_cc-pvdz.F08
pwd
cp /home/lmentel/scratch/h2_cc-pvdz.F09 /home/lmentel/work/mercurial_repo/Vconstr/test/h2/h2_cc-pvdz.F09
pwd
cp /home/lmentel/scratch/h2_cc-pvdz.F10 /home/lmentel/work/mercurial_repo/Vconstr/test/h2/h2_cc-pvdz.F10
pwd
cp /home/lmentel/scratch/basis.info /home/lmentel/work/mercurial_repo/Vconstr/test/h2/h2_cc-pvdz.basinfo
unset echo
ls: No match.
ls: No match.
ls: No match.
pon, 13 maj 2013, 15:33:47 KST
0.0u 0.0s 0:03.64 0.5% 0+0k 40+3168io 2pf+0w
