----- GAMESS execution script 'rungms' -----
This job is running on host doreen
under operating system Linux at śro, 15 maj 2013, 20:46:25 KST
Available scratch disk space (Kbyte units) at beginning of the job is
System plików      1K-bl     użyte dostępne %uż. zamont. na
/dev/sda5      242137496 192870208 36967412  84% /home
GAMESS temporary binary files will be written to /home/lmentel/scratch
GAMESS supplementary output files will be written to /home/lmentel/scratch
Copying input file h2o_cc-pvdz.inp to your run's scratch directory...
cp h2o_cc-pvdz.inp /home/lmentel/scratch/h2o_cc-pvdz.F05
unset echo
/home/lmentel/Programs/gamess-may2012/ddikick.x /home/lmentel/Programs/gamess-may2012/gamess.01.x h2o_cc-pvdz -ddi 1 1 doreen -scr /home/lmentel/scratch

 Distributed Data Interface kickoff program.
 Initiating 1 compute processes on 1 nodes to run the following command:
 /home/lmentel/Programs/gamess-may2012/gamess.01.x h2o_cc-pvdz 

          ******************************************************
          *         GAMESS VERSION =  1 MAY 2012 (R1)          *
          *             FROM IOWA STATE UNIVERSITY             *
          * M.W.SCHMIDT, K.K.BALDRIDGE, J.A.BOATZ, S.T.ELBERT, *
          *   M.S.GORDON, J.H.JENSEN, S.KOSEKI, N.MATSUNAGA,   *
          *          K.A.NGUYEN, S.J.SU, T.L.WINDUS,           *
          *       TOGETHER WITH M.DUPUIS, J.A.MONTGOMERY       *
          *         J.COMPUT.CHEM.  14, 1347-1363(1993)        *
          **************** 64 BIT LINUX VERSION ****************

  SINCE 1993, STUDENTS AND POSTDOCS WORKING AT IOWA STATE UNIVERSITY
  AND ALSO IN THEIR VARIOUS JOBS AFTER LEAVING ISU HAVE MADE IMPORTANT
  CONTRIBUTIONS TO THE CODE:
     IVANA ADAMOVIC, CHRISTINE AIKENS, YURI ALEXEEV, POOJA ARORA,
     ANDREY ASADCHEV, ROB BELL, PRADIPTA BANDYOPADHYAY, JONATHAN BENTZ,
     BRETT BODE, GALINA CHABAN, WEI CHEN, CHEOL HO CHOI, PAUL DAY,
     ALBERT DEFUSCO, TIM DUDLEY, DMITRI FEDOROV, GRAHAM FLETCHER,
     MARK FREITAG, KURT GLAESEMANN, DAN KEMP, GRANT MERRILL,
     NORIYUKI MINEZAWA, JONATHAN MULLIN, TAKESHI NAGATA,
     SEAN NEDD, HEATHER NETZLOFF, BOSILJKA NJEGIC, RYAN OLSON, MIKE PAK,
     JIM SHOEMAKER, LYUDMILA SLIPCHENKO, SAROM SOK, JIE SONG,
     TETSUYA TAKETSUGU, SIMON WEBB, SOOHAENG YOO, FEDERICO ZAHARIEV

  ADDITIONAL CODE HAS BEEN PROVIDED BY COLLABORATORS IN OTHER GROUPS:
     IOWA STATE UNIVERSITY:
          JOE IVANIC, LAIMUTIS BYTAUTAS, KLAUS RUEDENBERG
     UNIVERSITY OF TOKYO: KIMIHIKO HIRAO, TAKAHITO NAKAJIMA,
          TAKAO TSUNEDA, MUNEAKI KAMIYA, SUSUMU YANAGISAWA,
          KIYOSHI YAGI, MAHITO CHIBA, SEIKEN TOKURA, NAOAKI KAWAKAMI
     UNIVERSITY OF AARHUS: FRANK JENSEN
     UNIVERSITY OF IOWA: VISVALDAS KAIRYS, HUI LI
     NATIONAL INST. OF STANDARDS AND TECHNOLOGY: WALT STEVENS, DAVID GARMER
     UNIVERSITY OF PISA: BENEDETTA MENNUCCI, JACOPO TOMASI
     UNIVERSITY OF MEMPHIS: HENRY KURTZ, PRAKASHAN KORAMBATH
     UNIVERSITY OF ALBERTA: TOBY ZENG, MARIUSZ KLOBUKOWSKI
     UNIVERSITY OF NEW ENGLAND: MARK SPACKMAN
     MIE UNIVERSITY: HIROAKI UMEDA
     MICHIGAN STATE UNIVERSITY:
          KAROL KOWALSKI, MARTA WLOCH, JEFFREY GOUR, JESSE LUTZ, PIOTR PIECUCH
     UNIVERSITY OF SILESIA: MONIKA MUSIAL, STANISLAW KUCHARSKI
     FACULTES UNIVERSITAIRES NOTRE-DAME DE LA PAIX:
          OLIVIER QUINET, BENOIT CHAMPAGNE
     UNIVERSITY OF CALIFORNIA - SANTA BARBARA: BERNARD KIRTMAN
     INSTITUTE FOR MOLECULAR SCIENCE:
          KAZUYA ISHIMURA, MICHIO KATOUDA, AND SHIGERU NAGASE
     UNIVERSITY OF NOTRE DAME: DAN CHIPMAN
     KYUSHU UNIVERSITY:
          HARUYUKI NAKANO,
          FENG LONG GU, JACEK KORCHOWIEC, MARCIN MAKOWSKI, AND YURIKO AOKI,
          HIROTOSHI MORI AND EISAKU MIYOSHI
     PENNSYLVANIA STATE UNIVERSITY:
          TZVETELIN IORDANOV, CHET SWALINA, JONATHAN SKONE,
          SHARON HAMMES-SCHIFFER
     WASEDA UNIVERSITY:
          MASATO KOBAYASHI, TOMOKO AKAMA, TSUGUKI TOUMA,
          TAKESHI YOSHIKAWA, YASUHIRO IKABATA, HIROMI NAKAI
     UNIVERSITY OF NEBRASKA:
          PEIFENG SU, DEJUN SI, NANDUN THELLAMUREGE, YALI WANG, HUI LI
     UNIVERSITY OF ZURICH:
          ROBERTO PEVERATI, KIM BALDRIDGE
     N. COPERNICUS UNIVERSITY AND JACKSON STATE UNIVERSITY:
          MARIA BARYSZ

 EXECUTION OF GAMESS BEGUN Wed May 15 20:46:25 2013

            ECHO OF THE FIRST FEW INPUT CARDS -
 INPUT CARD> $CONTRL                                                                        
 INPUT CARD>    SCFTYP=RHF                                                                  
 INPUT CARD>    RUNTYP=ENERGY                                                               
 INPUT CARD>    cityp=guga                                                                  
 INPUT CARD>    UNITS=BOHR                                                                  
 INPUT CARD>    ISPHER=-1                                                                   
 INPUT CARD>    nprint=3                                                                    
 INPUT CARD> $END                                                                           
 INPUT CARD> $SYSTEM                                                                        
 INPUT CARD>    TIMLIM=1000000                                                              
 INPUT CARD>    mwords=100                                                                  
 INPUT CARD> $END                                                                           
 INPUT CARD> $SCF dirscf=.false. $END                                                       
 INPUT CARD> $CIDRT                                                                         
 INPUT CARD>    iexcit=2                                                                    
 INPUT CARD>    ndoc=5                                                                      
 INPUT CARD>    nval=20                                                                     
 INPUT CARD>    group=c2v                                                                   
 INPUT CARD> $END                                                                           
 INPUT CARD> $CIINP                                                                         
 INPUT CARD>    npflg(2)=2                                                                  
 INPUT CARD> $END                                                                           
 INPUT CARD> $GUGDM                                                                         
 INPUT CARD>    nflgdm=1                                                                    
 INPUT CARD> $END                                                                           
 INPUT CARD> $DATA                                                                          
 INPUT CARD>Water...RHF/3-21G...exp.geom...R(OH)=0.95781,A(HOH)=104.4776                    
 INPUT CARD>Cnv      2                                                                      
 INPUT CARD>                                                                                
 INPUT CARD>OXYGEN     8.0                                                                  
 INPUT CARD>S   8                                                                           
 INPUT CARD>  1  11720.0000000              0.0007100                                       
 INPUT CARD>  2   1759.0000000              0.0054700                                       
 INPUT CARD>  3    400.8000000              0.0278370                                       
 INPUT CARD>  4    113.7000000              0.1048000                                       
 INPUT CARD>  5     37.0300000              0.2830620                                       
 INPUT CARD>  6     13.2700000              0.4487190                                       
 INPUT CARD>  7      5.0250000              0.2709520                                       
 INPUT CARD>  8      1.0130000              0.0154580                                       
 INPUT CARD>S   8                                                                           
 INPUT CARD>  1  11720.0000000             -0.0001600                                       
 INPUT CARD>  2   1759.0000000             -0.0012630                                       
 INPUT CARD>  3    400.8000000             -0.0062670                                       
 INPUT CARD>  4    113.7000000             -0.0257160                                       
 INPUT CARD>  5     37.0300000             -0.0709240                                       
 INPUT CARD>  6     13.2700000             -0.1654110                                       
 INPUT CARD>  7      5.0250000             -0.1169550                                       
 INPUT CARD>  8      1.0130000              0.5573680                                       
 INPUT CARD>S   1                                                                           
 INPUT CARD>  1      0.3023000              1.0000000                                       
  100000000 WORDS OF MEMORY AVAILABLE


     RUN TITLE
     ---------
 Water...RHF/3-21G...exp.geom...R(OH)=0.95781,A(HOH)=104.4776                    

 THE POINT GROUP OF THE MOLECULE IS CNV     
 THE ORDER OF THE PRINCIPAL AXIS IS     2
 *** WARNING! ATOM   1 SHELL    1 TYPE S HAS NORMALIZATION   0.99950133
 *** WARNING! ATOM   1 SHELL    2 TYPE S HAS NORMALIZATION   1.96527132
 *** WARNING! ATOM   1 SHELL    4 TYPE P HAS NORMALIZATION   1.45704510
 *** WARNING! ATOM   2 SHELL    7 TYPE S HAS NORMALIZATION   1.70173870

 ATOM      ATOMIC                      COORDINATES (BOHR)
           CHARGE         X                   Y                   Z
 OXYGEN      8.0     0.0000000000        0.0000000000        0.0000000000
 HYDROGEN    1.0    -0.0000000000       -0.7572157000        0.5865358000
 HYDROGEN    1.0     0.0000000000        0.7572157000        0.5865358000

          INTERNUCLEAR DISTANCES (ANGS.)
          ------------------------------

                1 OXYG       2 HYDR       3 HYDR  

   1 OXYG    0.0000000    0.5068512 *  0.5068512 *
   2 HYDR    0.5068512 *  0.0000000    0.8014026 *
   3 HYDR    0.5068512 *  0.8014026 *  0.0000000  

  * ... LESS THAN  3.000


     ATOMIC BASIS SET
     ----------------
 THE CONTRACTED PRIMITIVE FUNCTIONS HAVE BEEN UNNORMALIZED
 THE CONTRACTED BASIS FUNCTIONS ARE NOW NORMALIZED TO UNITY

  SHELL TYPE  PRIMITIVE        EXPONENT          CONTRACTION COEFFICIENT(S)

 OXYGEN    

      1   S       1         11720.0000000    0.000709645947
      1   S       2          1759.0000000    0.005467272292
      1   S       3           400.8000000    0.027823118610
      1   S       4           113.7000000    0.104747739711
      1   S       5            37.0300000    0.282920846357
      1   S       6            13.2700000    0.448495238698
      1   S       7             5.0250000    0.270816885213
      1   S       8             1.0130000    0.015450291607

      2   S       9         11720.0000000   -0.000314443412
      2   S      10          1759.0000000   -0.002482137681
      2   S      11           400.8000000   -0.012316355382
      2   S      12           113.7000000   -0.050538917344
      2   S      13            37.0300000   -0.139384903316
      2   S      14            13.2700000   -0.325077494818
      2   S      15             5.0250000   -0.229848307588
      2   S      16             1.0130000    1.095379346788

      3   S      17             0.3023000    1.000000000000

      4   P      18            17.7000000    0.062679166282
      4   P      19             3.8540000    0.333536565879
      4   P      20             1.0460000    0.741239641640

      5   P      21             0.2753000    1.000000000000

      6   D      22             1.1850000    1.000000000000

 HYDROGEN  

     10   S      23            13.0100000    0.033498726390
     10   S      24             1.9620000    0.234800801174
     10   S      25             0.4446000    0.813682957883

     11   S      26             0.1220000    1.000000000000

     12   P      27             0.7270000    1.000000000000

 TOTAL NUMBER OF BASIS SET SHELLS             =   12
 NUMBER OF CARTESIAN GAUSSIAN BASIS FUNCTIONS =   25
 NUMBER OF ELECTRONS                          =   10
 CHARGE OF MOLECULE                           =    0
 SPIN MULTIPLICITY                            =    1
 NUMBER OF OCCUPIED ORBITALS (ALPHA)          =    5
 NUMBER OF OCCUPIED ORBITALS (BETA )          =    5
 TOTAL NUMBER OF ATOMS                        =    3
 THE NUCLEAR REPULSION ENERGY IS       17.3650894946

     $CONTRL OPTIONS
     ---------------
 SCFTYP=RHF          RUNTYP=ENERGY       EXETYP=RUN     
 MPLEVL=       0     CITYP =GUGA         CCTYP =NONE         VBTYP =NONE    
 DFTTYP=NONE         TDDFT =NONE    
 MULT  =       1     ICHARG=       0     NZVAR =       0     COORD =UNIQUE  
 PP    =NONE         RELWFN=NONE         LOCAL =NONE         NUMGRD=       F
 ISPHER=      -1     NOSYM =       0     MAXIT =      30     UNITS =BOHR    
 PLTORB=       F     MOLPLT=       F     AIMPAC=       F     FRIEND=        
 NPRINT=       3     IREST =       0     GEOM  =INPUT   
 NORMF =       0     NORMP =       0     ITOL  =      20     ICUT  =       9
 INTTYP=BEST         GRDTYP=BEST         QMTTOL= 1.0E-06

     $SYSTEM OPTIONS
     ---------------
  REPLICATED MEMORY=   100000000 WORDS (ON EVERY NODE).
 DISTRIBUTED MEMDDI=           0 MILLION WORDS IN AGGREGATE,
 MEMDDI DISTRIBUTED OVER   1 PROCESSORS IS           0 WORDS/PROCESSOR.
 TOTAL MEMORY REQUESTED ON EACH PROCESSOR=   100000000 WORDS.
 TIMLIM=     1000000.00 MINUTES, OR     694.4 DAYS.
 PARALL= F  BALTYP=  DLB     KDIAG=    0  COREFL= F
 MXSEQ2=     300 MXSEQ3=     150

          ----------------
          PROPERTIES INPUT
          ----------------

     MOMENTS            FIELD           POTENTIAL          DENSITY
 IEMOM =       1   IEFLD =       0   IEPOT =       0   IEDEN =       0
 WHERE =COMASS     WHERE =NUCLEI     WHERE =NUCLEI     WHERE =NUCLEI  
 OUTPUT=BOTH       OUTPUT=BOTH       OUTPUT=BOTH       OUTPUT=BOTH    
 IEMINT=       0   IEFINT=       0                     IEDINT=       0
                                                       MORB  =       0
          EXTRAPOLATION IN EFFECT
          SOSCF IN EFFECT
 ORBITAL PRINTING OPTION: NPREO=     1    25     2     1

     -------------------------------
     INTEGRAL TRANSFORMATION OPTIONS
     -------------------------------
     NWORD  =            0
     CUTOFF = 1.0E-09     MPTRAN =       0
     DIRTRF =       F     AOINTS =DUP     

          ----------------------
          INTEGRAL INPUT OPTIONS
          ----------------------
 NOPK  =       1 NORDER=       0 SCHWRZ=       F

     ------------------------------------------
     THE POINT GROUP IS CNV, NAXIS= 2, ORDER= 4
     ------------------------------------------

     DIMENSIONS OF THE SYMMETRY SUBSPACES ARE
 A1  =   12     A2  =    2     B1  =    4     B2  =    7

 ..... DONE SETTING UP THE RUN .....
 STEP CPU TIME =     0.01 TOTAL CPU TIME =        0.0 (    0.0 MIN)
 TOTAL WALL CLOCK TIME=        0.0 SECONDS, CPU UTILIZATION IS  50.00%

          ********************
          1 ELECTRON INTEGRALS
          ********************
 OVERLAP MATRIX

                      1          2          3          4          5

    1  O  1  S    1.000000
    2  O  1  S   -0.214063   1.000000
    3  O  1  S    0.194384   0.708607   1.000000
    4  O  1  X    0.000000   0.000000   0.000000   1.000000
    5  O  1  Y    0.000000   0.000000   0.000000   0.000000   1.000000
    6  O  1  Z    0.000000   0.000000   0.000000   0.000000   0.000000
    7  O  1  X    0.000000   0.000000   0.000000   0.501271   0.000000
    8  O  1  Y    0.000000   0.000000   0.000000   0.000000   0.501271
    9  O  1  Z    0.000000   0.000000   0.000000   0.000000   0.000000
   10  O  1 XX    0.070586   0.629906   0.664284   0.000000   0.000000
   11  O  1 YY    0.070586   0.629906   0.664284   0.000000   0.000000
   12  O  1 ZZ    0.070586   0.629906   0.664284   0.000000   0.000000
   13  O  1 XY    0.000000   0.000000   0.000000   0.000000   0.000000
   14  O  1 XZ    0.000000   0.000000   0.000000   0.000000   0.000000
   15  O  1 YZ    0.000000   0.000000   0.000000   0.000000   0.000000
   16  H  2  S    0.172880   0.605430   0.778740  -0.000000  -0.328657
   17  H  2  S    0.092346   0.418954   0.795248  -0.000000  -0.057593
   18  H  2  X    0.000000   0.000000   0.000000   0.569975  -0.000000
   19  H  2  Y    0.218115   0.390608   0.271053  -0.000000   0.270466
   20  H  2  Z   -0.168951  -0.302563  -0.209957   0.000000   0.231998
   21  H  3  S    0.172880   0.605430   0.778740   0.000000   0.328657
   22  H  3  S    0.092346   0.418954   0.795248   0.000000   0.057593
   23  H  3  X    0.000000   0.000000   0.000000   0.569975   0.000000
   24  H  3  Y   -0.218115  -0.390608  -0.271053   0.000000   0.270466
   25  H  3  Z   -0.168951  -0.302563  -0.209957   0.000000  -0.231998

                      6          7          8          9         10

    6  O  1  Z    1.000000
    7  O  1  X    0.000000   1.000000
    8  O  1  Y    0.000000   0.000000   1.000000
    9  O  1  Z    0.501271   0.000000   0.000000   1.000000
   10  O  1 XX    0.000000   0.000000   0.000000   0.000000   1.000000
   11  O  1 YY    0.000000   0.000000   0.000000   0.000000   0.333333
   12  O  1 ZZ    0.000000   0.000000   0.000000   0.000000   0.333333
   13  O  1 XY    0.000000   0.000000   0.000000   0.000000   0.000000
   14  O  1 XZ    0.000000   0.000000   0.000000   0.000000   0.000000
   15  O  1 YZ    0.000000   0.000000   0.000000   0.000000   0.000000
   16  H  2  S    0.254576  -0.000000  -0.400281   0.310056   0.476952
   17  H  2  S    0.044611  -0.000000  -0.200080   0.154981   0.419790
   18  H  2  X    0.000000   0.626900  -0.000000   0.000000   0.000000
   19  H  2  Y    0.231998  -0.000000   0.483347   0.111195   0.362395
   20  H  2  Z    0.390270   0.000000   0.111195   0.540769  -0.280709
   21  H  3  S    0.254576   0.000000   0.400281   0.310056   0.476952
   22  H  3  S    0.044611   0.000000   0.200080   0.154981   0.419790
   23  H  3  X    0.000000   0.626900   0.000000   0.000000   0.000000
   24  H  3  Y   -0.231998   0.000000   0.483347  -0.111195  -0.362395
   25  H  3  Z    0.390270   0.000000  -0.111195   0.540769  -0.280709

                     11         12         13         14         15

   11  O  1 YY    1.000000
   12  O  1 ZZ    0.333333   1.000000
   13  O  1 XY    0.000000   0.000000   1.000000
   14  O  1 XZ    0.000000   0.000000   0.000000   1.000000
   15  O  1 YZ    0.000000   0.000000   0.000000   0.000000   1.000000
   16  H  2  S    0.612420   0.558233   0.000000  -0.000000  -0.181749
   17  H  2  S    0.425272   0.423079   0.000000  -0.000000  -0.007355
   18  H  2  X    0.000000   0.000000  -0.385087   0.298286  -0.000000
   19  H  2  Y    0.032612   0.431321  -0.000000  -0.000000   0.144163
   20  H  2  Z   -0.369692   0.010333  -0.000000  -0.000000  -0.265704
   21  H  3  S    0.612420   0.558233   0.000000   0.000000   0.181749
   22  H  3  S    0.425272   0.423079   0.000000   0.000000   0.007355
   23  H  3  X    0.000000   0.000000   0.385087   0.298286   0.000000
   24  H  3  Y   -0.032612  -0.431321   0.000000   0.000000   0.144163
   25  H  3  Z   -0.369692   0.010333   0.000000   0.000000   0.265704

                     16         17         18         19         20

   16  H  2  S    1.000000
   17  H  2  S    0.684860   1.000000
   18  H  2  X    0.000000   0.000000   1.000000
   19  H  2  Y   -0.000000   0.000000   0.000000   1.000000
   20  H  2  Z    0.000000   0.000000   0.000000   0.000000   1.000000
   21  H  3  S    0.521757   0.547126   0.000000   0.519743   0.000000
   22  H  3  S    0.547126   0.869442   0.000000   0.171611   0.000000
   23  H  3  X   -0.000000  -0.000000   0.434444  -0.000000   0.000000
   24  H  3  Y   -0.519743  -0.171611  -0.000000  -0.289938   0.000000
   25  H  3  Z    0.000000   0.000000   0.000000   0.000000   0.434444

                     21         22         23         24         25

   21  H  3  S    1.000000
   22  H  3  S    0.684860   1.000000
   23  H  3  X    0.000000   0.000000   1.000000
   24  H  3  Y    0.000000   0.000000   0.000000   1.000000
   25  H  3  Z    0.000000   0.000000   0.000000   0.000000   1.000000
 BARE NUCLEUS HAMILTONIAN INTEGRALS (H=T+V)

                      1          2          3          4          5

    1  O  1  S  -34.009183
    2  O  1  S    8.081422 -11.127161
    3  O  1  S   -6.117132  -5.531665  -8.043505
    4  O  1  X    0.000000   0.000000   0.000000  -9.135410
    5  O  1  Y    0.000000   0.000000   0.000000  -0.000000  -9.525570
    6  O  1  Z   -0.106814  -0.452116  -0.374324   0.000000   0.000000
    7  O  1  X    0.000000   0.000000   0.000000  -3.982421  -0.000000
    8  O  1  Y    0.000000   0.000000   0.000000  -0.000000  -4.158468
    9  O  1  Z   -0.017348  -0.209358  -0.258140   0.000000   0.000000
   10  O  1 XX   -2.067193  -5.187279  -5.440382   0.000000   0.000000
   11  O  1 YY   -2.087744  -5.473817  -5.686561   0.000000   0.000000
   12  O  1 ZZ   -2.079524  -5.359201  -5.588089   0.000000   0.000000
   13  O  1 XY   -0.000000  -0.000000  -0.000000   0.000000   0.000000
   14  O  1 XZ    0.000000   0.000000   0.000000  -0.240418  -0.000000
   15  O  1 YZ    0.000000   0.000000   0.000000  -0.000000  -0.544299
   16  H  2  S   -5.461323  -4.875702  -6.773420   0.000000   2.915088
   17  H  2  S   -2.881583  -3.387460  -5.481707   0.000000   0.477330
   18  H  2  X   -0.000000  -0.000000  -0.000000  -4.685896   0.000000
   19  H  2  Y   -7.005508  -2.689918  -4.020188   0.000000  -2.248900
   20  H  2  Z    5.402737   1.871791   2.901101  -0.000000  -1.951914
   21  H  3  S   -5.461323  -4.875702  -6.773420   0.000000  -2.915088
   22  H  3  S   -2.881583  -3.387460  -5.481707   0.000000  -0.477330
   23  H  3  X    0.000000   0.000000   0.000000  -4.685896  -0.000000
   24  H  3  Y    7.005508   2.689918   4.020188  -0.000000  -2.248900
   25  H  3  Z    5.402737   1.871791   2.901101  -0.000000   1.951914

                      6          7          8          9         10

    6  O  1  Z   -9.369505
    7  O  1  X    0.000000  -4.792018
    8  O  1  Y    0.000000  -0.000000  -4.940312
    9  O  1  Z   -4.088049   0.000000   0.000000  -4.880994
   10  O  1 XX   -0.138805   0.000000   0.000000  -0.085679  -6.277324
   11  O  1 YY   -0.314251   0.000000   0.000000  -0.180345  -3.205602
   12  O  1 ZZ   -0.521683   0.000000   0.000000  -0.313837  -3.181671
   13  O  1 XY   -0.000000   0.000000   0.000000  -0.000000  -0.000000
   14  O  1 XZ    0.000000  -0.148401  -0.000000   0.000000   0.000000
   15  O  1 YZ    0.000000  -0.000000  -0.312367   0.000000   0.000000
   16  H  2  S   -2.506612   0.000000   2.377288  -1.990925  -4.247101
   17  H  2  S   -0.572927   0.000000   0.871310  -0.858382  -3.353972
   18  H  2  X   -0.000000  -3.685850   0.000000  -0.000000   0.000000
   19  H  2  Y   -2.265317   0.000000  -2.564545  -1.049425  -3.329692
   20  H  2  Z   -3.077792  -0.000000  -0.884441  -2.982380   2.499654
   21  H  3  S   -2.506612   0.000000  -2.377288  -1.990925  -4.247101
   22  H  3  S   -0.572927   0.000000  -0.871310  -0.858382  -3.353972
   23  H  3  X    0.000000  -3.685850  -0.000000   0.000000   0.000000
   24  H  3  Y    2.265317  -0.000000  -2.564545   1.049425   3.329692
   25  H  3  Z   -3.077792  -0.000000   0.884441  -2.982380   2.499654

                     11         12         13         14         15

   11  O  1 YY   -6.806865
   12  O  1 ZZ   -3.343844  -6.554109
   13  O  1 XY   -0.000000  -0.000000  -4.876807
   14  O  1 XZ    0.000000   0.000000   0.000000  -4.805013
   15  O  1 YZ    0.000000   0.000000   0.000000  -0.000000  -5.291531
   16  H  2  S   -5.268235  -4.925501  -0.000000   0.000000   1.248938
   17  H  2  S   -3.538336  -3.479295  -0.000000   0.000000   0.080442
   18  H  2  X   -0.000000  -0.000000   2.010881  -1.695335   0.000000
   19  H  2  Y   -1.689982  -3.847090   0.000000   0.000000  -0.991597
   20  H  2  Z    2.973315   0.860101   0.000000   0.000000   1.382958
   21  H  3  S   -5.268235  -4.925501  -0.000000   0.000000  -1.248938
   22  H  3  S   -3.538336  -3.479295  -0.000000   0.000000  -0.080442
   23  H  3  X    0.000000   0.000000  -2.010881  -1.695335  -0.000000
   24  H  3  Y    1.689982   3.847090   0.000000  -0.000000  -0.991597
   25  H  3  Z    2.973315   0.860101   0.000000   0.000000  -1.382958

                     16         17         18         19         20

   16  H  2  S   -8.206633
   17  H  2  S   -4.986289  -4.990662
   18  H  2  X   -0.000000  -0.000000  -5.414450
   19  H  2  Y   -2.383996  -1.533685  -0.000000  -7.099753
   20  H  2  Z    1.662275   1.043103   0.000000   1.132051  -6.291331
   21  H  3  S   -5.081896  -4.248440  -0.000000  -5.421178   1.183741
   22  H  3  S   -4.248440  -4.552650  -0.000000  -2.388753   0.937318
   23  H  3  X    0.000000   0.000000  -3.018852   0.000000  -0.000000
   24  H  3  Y    5.421178   2.388753   0.000000   3.639239  -1.521180
   25  H  3  Z    1.183741   0.937318   0.000000   1.521180  -3.684632

                     21         22         23         24         25

   21  H  3  S   -8.206633
   22  H  3  S   -4.986289  -4.990662
   23  H  3  X    0.000000   0.000000  -5.414450
   24  H  3  Y    2.383996   1.533685  -0.000000  -7.099753
   25  H  3  Z    1.662275   1.043103   0.000000  -1.132051  -6.291331
 KINETIC ENERGY INTEGRALS

                      1          2          3          4          5

    1  O  1  S   29.186642
    2  O  1  S  -15.949656  10.361104
    3  O  1  S    0.167796   0.471263   0.453450
    4  O  1  X    0.000000   0.000000   0.000000   4.324826
    5  O  1  Y    0.000000   0.000000   0.000000   0.000000   4.324826
    6  O  1  Z    0.000000   0.000000   0.000000   0.000000   0.000000
    7  O  1  X    0.000000   0.000000   0.000000   0.558169   0.000000
    8  O  1  Y    0.000000   0.000000   0.000000   0.000000   0.558169
    9  O  1  Z    0.000000   0.000000   0.000000   0.000000   0.000000
   10  O  1 XX   -0.745070   1.010627   0.398359   0.000000   0.000000
   11  O  1 YY   -0.745070   1.010627   0.398359   0.000000   0.000000
   12  O  1 ZZ   -0.745070   1.010627   0.398359   0.000000   0.000000
   13  O  1 XY    0.000000   0.000000   0.000000   0.000000   0.000000
   14  O  1 XZ    0.000000   0.000000   0.000000   0.000000   0.000000
   15  O  1 YZ    0.000000   0.000000   0.000000   0.000000   0.000000
   16  H  2  S    0.128208   0.514236   0.393746  -0.000000  -0.617472
   17  H  2  S    0.030640   0.125897   0.196347  -0.000000  -0.030438
   18  H  2  X    0.000000   0.000000   0.000000   1.081472  -0.000000
   19  H  2  Y    0.544564   0.585011   0.266699  -0.000000   0.223334
   20  H  2  Z   -0.421817  -0.453147  -0.206584   0.000000   0.664710
   21  H  3  S    0.128208   0.514236   0.393746   0.000000   0.617472
   22  H  3  S    0.030640   0.125897   0.196347   0.000000   0.030438
   23  H  3  X    0.000000   0.000000   0.000000   1.081472   0.000000
   24  H  3  Y   -0.544564  -0.585011  -0.266699   0.000000   0.223334
   25  H  3  Z   -0.421817  -0.453147  -0.206584   0.000000  -0.664710

                      6          7          8          9         10

    6  O  1  Z    4.324826
    7  O  1  X    0.000000   0.688250
    8  O  1  Y    0.000000   0.000000   0.688250
    9  O  1  Z    0.558169   0.000000   0.000000   0.688250
   10  O  1 XX    0.000000   0.000000   0.000000   0.000000   2.567500
   11  O  1 YY    0.000000   0.000000   0.000000   0.000000  -0.197500
   12  O  1 ZZ    0.000000   0.000000   0.000000   0.000000  -0.197500
   13  O  1 XY    0.000000   0.000000   0.000000   0.000000   0.000000
   14  O  1 XZ    0.000000   0.000000   0.000000   0.000000   0.000000
   15  O  1 YZ    0.000000   0.000000   0.000000   0.000000   0.000000
   16  H  2  S    0.478291  -0.000000  -0.341506   0.264529   0.156617
   17  H  2  S    0.023577  -0.000000  -0.081948   0.063476   0.120317
   18  H  2  X    0.000000   0.580045  -0.000000   0.000000   0.000000
   19  H  2  Y    0.664710  -0.000000   0.389891   0.147292   0.481085
   20  H  2  Z    0.566591   0.000000   0.147292   0.465953  -0.372646
   21  H  3  S    0.478291   0.000000   0.341506   0.264529   0.156617
   22  H  3  S    0.023577   0.000000   0.081948   0.063476   0.120317
   23  H  3  X    0.000000   0.580045   0.000000   0.000000   0.000000
   24  H  3  Y   -0.664710   0.000000   0.389891  -0.147292  -0.481085
   25  H  3  Z    0.566591   0.000000  -0.147292   0.465953  -0.372646

                     11         12         13         14         15

   11  O  1 YY    2.567500
   12  O  1 ZZ   -0.197500   2.567500
   13  O  1 XY    0.000000   0.000000   4.147500
   14  O  1 XZ    0.000000   0.000000   0.000000   4.147500
   15  O  1 YZ    0.000000   0.000000   0.000000   0.000000   4.147500
   16  H  2  S    0.605375   0.425871   0.000000  -0.000000  -0.602071
   17  H  2  S    0.124438   0.122790   0.000000  -0.000000  -0.005530
   18  H  2  X    0.000000   0.000000  -1.071125   0.829688  -0.000000
   19  H  2  Y   -0.332692   0.734915  -0.000000  -0.000000   0.262105
   20  H  2  Z   -0.700340   0.388780  -0.000000  -0.000000  -0.631478
   21  H  3  S    0.605375   0.425871   0.000000   0.000000   0.602071
   22  H  3  S    0.124438   0.122790   0.000000   0.000000   0.005530
   23  H  3  X    0.000000   0.000000   1.071125   0.829688   0.000000
   24  H  3  Y    0.332692  -0.734915   0.000000   0.000000   0.262105
   25  H  3  Z   -0.700340   0.388780   0.000000   0.000000   0.631478

                     16         17         18         19         20

   16  H  2  S    0.969457
   17  H  2  S    0.201234   0.183000
   18  H  2  X    0.000000   0.000000   1.817500
   19  H  2  Y   -0.000000   0.000000   0.000000   1.817500
   20  H  2  Z   -0.000000   0.000000  -0.000000   0.000000   1.817500
   21  H  3  S    0.222142   0.136497   0.000000   0.573042  -0.000000
   22  H  3  S    0.136497   0.144268   0.000000   0.081049   0.000000
   23  H  3  X   -0.000000  -0.000000   0.526289  -0.000000  -0.000000
   24  H  3  Y   -0.573042  -0.081049  -0.000000  -0.877858  -0.000000
   25  H  3  Z   -0.000000   0.000000   0.000000   0.000000   0.526289

                     21         22         23         24         25

   21  H  3  S    0.969457
   22  H  3  S    0.201234   0.183000
   23  H  3  X    0.000000   0.000000   1.817500
   24  H  3  Y    0.000000   0.000000   0.000000   1.817500
   25  H  3  Z   -0.000000   0.000000   0.000000   0.000000   1.817500
 ...... END OF ONE-ELECTRON INTEGRALS ......
 STEP CPU TIME =     0.00 TOTAL CPU TIME =        0.0 (    0.0 MIN)
 TOTAL WALL CLOCK TIME=        0.0 SECONDS, CPU UTILIZATION IS  50.00%

          -------------
          GUESS OPTIONS
          -------------
          GUESS =HUCKEL            NORB  =       0          NORDER=       0
          MIX   =       F          PRTMO =       F          PUNMO =       F
          TOLZ  = 1.0E-08          TOLE  = 1.0E-05
          SYMDEN=       F          PURIFY=       F

 INITIAL GUESS ORBITALS GENERATED BY HUCKEL   ROUTINE.
 HUCKEL GUESS REQUIRES      6979 WORDS.

 SYMMETRIES FOR INITIAL GUESS ORBITALS FOLLOW.   BOTH SET(S).
     5 ORBITALS ARE OCCUPIED (    1 CORE ORBITALS).
     2=?A1      3=?B2      4=A1       5=B1       6=B2       7=A1       8=A1  
     9=A1      10=A1      11=A1      12=A1      13=A1      14=A1      15=A1  
 ...... END OF INITIAL ORBITAL SELECTION ......
 STEP CPU TIME =     0.00 TOTAL CPU TIME =        0.0 (    0.0 MIN)
 TOTAL WALL CLOCK TIME=        0.0 SECONDS, CPU UTILIZATION IS  50.00%

                    ----------------------
                    AO INTEGRAL TECHNOLOGY
                    ----------------------
     S,P,L SHELL ROTATED AXIS INTEGRALS, REPROGRAMMED BY
        KAZUYA ISHIMURA (IMS) AND JOSE SIERRA (SYNSTAR).
     S,P,D,L SHELL ROTATED AXIS INTEGRALS PROGRAMMED BY
        KAZUYA ISHIMURA (INSTITUTE FOR MOLECULAR SCIENCE).
     S,P,D,F,G SHELL TO TOTAL QUARTET ANGULAR MOMENTUM SUM 5,
        ERIC PROGRAM BY GRAHAM FLETCHER (ELORET AND NASA ADVANCED
        SUPERCOMPUTING DIVISION, AMES RESEARCH CENTER).
     S,P,D,F,G,L SHELL GENERAL RYS QUADRATURE PROGRAMMED BY
        MICHEL DUPUIS (PACIFIC NORTHWEST NATIONAL LABORATORY).

          --------------------
          2 ELECTRON INTEGRALS
          --------------------

 THE -PK- OPTION IS OFF, THE INTEGRALS ARE NOT IN SUPERMATRIX FORM.
 STORING   15000 INTEGRALS/RECORD ON DISK, USING 12 BYTES/INTEGRAL.
 TWO ELECTRON INTEGRAL EVALUATION REQUIRES   90474 WORDS OF MEMORY.
 II,JST,KST,LST =  1  1  1  1 NREC =         1 INTLOC =    1
 II,JST,KST,LST =  2  1  1  1 NREC =         1 INTLOC =    2
 II,JST,KST,LST =  3  1  1  1 NREC =         1 INTLOC =    7
 II,JST,KST,LST =  4  1  1  1 NREC =         1 INTLOC =   22
 II,JST,KST,LST =  5  1  1  1 NREC =         1 INTLOC =   67
 II,JST,KST,LST =  6  1  1  1 NREC =         1 INTLOC =  214
 II,JST,KST,LST =  7  1  1  1 NREC =         1 INTLOC = 1189
 II,JST,KST,LST =  8  1  1  1 NREC =         1 INTLOC = 1189
 II,JST,KST,LST =  9  1  1  1 NREC =         1 INTLOC = 1189
 II,JST,KST,LST = 10  1  1  1 NREC =         1 INTLOC = 1189
 II,JST,KST,LST = 11  1  1  1 NREC =         1 INTLOC = 2524
 II,JST,KST,LST = 12  1  1  1 NREC =         1 INTLOC = 4462
 TOTAL NUMBER OF NONZERO TWO-ELECTRON INTEGRALS =               13863
          1 INTEGRAL RECORDS WERE STORED ON DISK FILE  8.
  ...... END OF TWO-ELECTRON INTEGRALS .....
 STEP CPU TIME =     0.04 TOTAL CPU TIME =        0.0 (    0.0 MIN)
 TOTAL WALL CLOCK TIME=        0.1 SECONDS, CPU UTILIZATION IS  83.33%

          --------------------------
                 RHF SCF CALCULATION
          --------------------------

     NUCLEAR ENERGY =        17.3650894946
     MAXIT =   30     NPUNCH=    2
     EXTRAP=T  DAMP=F  SHIFT=F  RSTRCT=F  DIIS=F  DEM=F  SOSCF=T
     DENSITY MATRIX CONV=  1.00E-06
     SOSCF WILL OPTIMIZE     100 ORBITAL ROTATIONS, SOGTOL=   0.250
     MEMORY REQUIRED FOR RHF ITERS=     35125 WORDS.

 ITER EX DEM     TOTAL ENERGY        E CHANGE  DENSITY CHANGE     ORB. GRAD
   1  0  0      -73.9502463181   -73.9502463181   0.425167973   0.000000000
          ---------------START SECOND ORDER SCF---------------
   2  1  0      -74.5164873530    -0.5662410349   0.178154476   0.111608276
   3  2  0      -74.5484782330    -0.0319908800   0.040424033   0.029187531
   4  3  0      -74.5521714817    -0.0036932488   0.008076051   0.005117828
   5  4  0      -74.5523566443    -0.0001851626   0.003561484   0.001136382
   6  5  0      -74.5523635897    -0.0000069454   0.001407067   0.000335618
   7  6  0      -74.5523641670    -0.0000005773   0.000100913   0.000047520
   8  7  0      -74.5523641807    -0.0000000137   0.000023480   0.000013666
   9  8  0      -74.5523641819    -0.0000000013   0.000006734   0.000002621
  10  9  0      -74.5523641820    -0.0000000000   0.000001260   0.000000541
  11 10  0      -74.5523641820    -0.0000000000   0.000000192   0.000000091

          -----------------
          DENSITY CONVERGED
          -----------------
     TIME TO FORM FOCK OPERATORS=       0.0 SECONDS (       0.0 SEC/ITER)
     TIME TO SOLVE SCF EQUATIONS=       0.0 SECONDS (       0.0 SEC/ITER)

 FINAL RHF ENERGY IS      -74.5523641820 AFTER  11 ITERATIONS

          ------------
          EIGENVECTORS
          ------------

                      1          2          3          4          5
                  -20.5150    -1.7054    -1.0223    -0.6556    -0.5604
                     A1         A1         B2         A1         B1  
    1  O  1  S    1.003797  -0.061390  -0.000000  -0.002901   0.000000
    2  O  1  S    0.009981   0.388901  -0.000000  -0.175031   0.000000
    3  O  1  S    0.002608  -0.102660  -0.000000  -0.496963   0.000000
    4  O  1  X   -0.000000   0.000000  -0.000000  -0.000000   0.648275
    5  O  1  Y   -0.000000   0.000000   0.614043  -0.000000   0.000000
    6  O  1  Z    0.005268   0.220245  -0.000000   0.596370   0.000000
    7  O  1  X   -0.000000   0.000000  -0.000000  -0.000000   0.445165
    8  O  1  Y   -0.000000   0.000000   0.055150  -0.000000   0.000000
    9  O  1  Z    0.000337  -0.089843  -0.000000   0.302420   0.000000
   10  O  1 XX   -0.003633  -0.026655  -0.000000  -0.021979   0.000000
   11  O  1 YY   -0.001875  -0.001486  -0.000000  -0.025153   0.000000
   12  O  1 ZZ   -0.001846   0.011777  -0.000000   0.035030   0.000000
   13  O  1 XY   -0.000000   0.000000  -0.000000  -0.000000   0.000000
   14  O  1 XZ   -0.000000   0.000000  -0.000000  -0.000000   0.033119
   15  O  1 YZ   -0.000000   0.000000   0.062099  -0.000000   0.000000
   16  H  2  S   -0.003406   0.397636  -0.438972   0.179589   0.000000
   17  H  2  S    0.000159   0.021385  -0.075636  -0.023944   0.000000
   18  H  2  X   -0.000000   0.000000  -0.000000  -0.000000   0.033392
   19  H  2  Y   -0.001070   0.030234  -0.037755   0.013223   0.000000
   20  H  2  Z    0.000137  -0.027264   0.028109   0.008631   0.000000
   21  H  3  S   -0.003406   0.397636   0.438972   0.179589   0.000000
   22  H  3  S    0.000159   0.021385   0.075636  -0.023944   0.000000
   23  H  3  X   -0.000000   0.000000  -0.000000  -0.000000   0.033392
   24  H  3  Y    0.001070  -0.030234  -0.037755  -0.013223   0.000000
   25  H  3  Z    0.000137  -0.027264  -0.028109   0.008631   0.000000

                      6          7          8          9         10
                    0.2259     0.2792     0.9706     1.0174     1.0846
                     A1         B2         A1         B1         B2  
    1  O  1  S   -0.037322  -0.000000  -0.057913  -0.000000   0.000000
    2  O  1  S    0.108568  -0.000000  -0.052483  -0.000000   0.000000
    3  O  1  S    1.264651  -0.000000   1.408270  -0.000000   0.000000
    4  O  1  X    0.000000  -0.000000  -0.000000  -0.605464   0.000000
    5  O  1  Y    0.000000   0.180469  -0.000000  -0.000000  -0.267036
    6  O  1  Z    0.048866  -0.000000  -0.548235  -0.000000   0.000000
    7  O  1  X    0.000000  -0.000000  -0.000000   1.353159   0.000000
    8  O  1  Y    0.000000   0.655162  -0.000000  -0.000000   2.378860
    9  O  1  Z    0.028680  -0.000000   1.609848  -0.000000   0.000000
   10  O  1 XX   -0.056552  -0.000000  -0.009152  -0.000000   0.000000
   11  O  1 YY   -0.032738  -0.000000  -0.019448  -0.000000   0.000000
   12  O  1 ZZ   -0.046409  -0.000000   0.095724  -0.000000   0.000000
   13  O  1 XY    0.000000  -0.000000  -0.000000  -0.000000   0.000000
   14  O  1 XZ    0.000000  -0.000000  -0.000000   0.070122   0.000000
   15  O  1 YZ    0.000000   0.029972  -0.000000  -0.000000   0.058043
   16  H  2  S    0.018443  -0.003589  -0.584335  -0.000000   0.974338
   17  H  2  S   -0.914139   2.751726  -0.304145  -0.000000   1.666738
   18  H  2  X    0.000000  -0.000000  -0.000000  -0.390608   0.000000
   19  H  2  Y   -0.017821  -0.031952  -0.116066  -0.000000  -0.330394
   20  H  2  Z    0.018153  -0.031448  -0.233153  -0.000000   0.105630
   21  H  3  S    0.018443   0.003589  -0.584335  -0.000000  -0.974338
   22  H  3  S   -0.914139  -2.751726  -0.304145  -0.000000  -1.666738
   23  H  3  X    0.000000  -0.000000  -0.000000  -0.390608   0.000000
   24  H  3  Y    0.017821  -0.031952   0.116066  -0.000000  -0.330394
   25  H  3  Z    0.018153   0.031448  -0.233153  -0.000000  -0.105630

                     11         12         13         14         15
                    1.4457     1.4848     1.5358     1.6822     2.0781
                     B2         A1         A1         A2         A1  
    1  O  1  S    0.000000  -0.160612   0.034223   0.000000  -0.677418
    2  O  1  S    0.000000  -0.468383  -0.212807   0.000000  -1.134594
    3  O  1  S    0.000000   3.271477   0.744457   0.000000   2.621104
    4  O  1  X    0.000000   0.000000   0.000000   0.000000   0.000000
    5  O  1  Y   -0.535902   0.000000   0.000000   0.000000   0.000000
    6  O  1  Z    0.000000  -0.103303   0.117739   0.000000   0.698958
    7  O  1  X    0.000000   0.000000   0.000000   0.000000   0.000000
    8  O  1  Y    0.733741   0.000000   0.000000   0.000000   0.000000
    9  O  1  Z    0.000000   0.161368  -0.237273   0.000000   0.840357
   10  O  1 XX    0.000000  -0.131485  -0.170917   0.000000   0.156362
   11  O  1 YY    0.000000  -0.029574  -0.143110   0.000000  -0.248703
   12  O  1 ZZ    0.000000  -0.184303  -0.141924   0.000000  -0.248463
   13  O  1 XY    0.000000   0.000000   0.000000   0.033467   0.000000
   14  O  1 XZ    0.000000   0.000000   0.000000   0.000000   0.000000
   15  O  1 YZ    0.024336   0.000000   0.000000   0.000000   0.000000
   16  H  2  S   -0.175299  -0.909917   0.519430   0.000000  -0.775674
   17  H  2  S    1.302688  -0.545672  -0.388147   0.000000  -0.293804
   18  H  2  X    0.000000   0.000000   0.000000   0.962796   0.000000
   19  H  2  Y    0.329999   0.164695  -0.622450   0.000000   0.093624
   20  H  2  Z   -0.569961   0.608657   0.082007   0.000000  -0.682243
   21  H  3  S    0.175299  -0.909917   0.519430   0.000000  -0.775674
   22  H  3  S   -1.302688  -0.545672  -0.388147   0.000000  -0.293804
   23  H  3  X    0.000000   0.000000   0.000000  -0.962796   0.000000
   24  H  3  Y    0.329999  -0.164695   0.622450   0.000000  -0.093624
   25  H  3  Z    0.569961   0.608657   0.082007   0.000000  -0.682243

                     16         17         18         19         20
                    2.1368     2.5867     3.5069     3.5920     3.7045
                     B1         B2         B2         A1         B1  
    1  O  1  S    0.000000  -0.000000   0.000000  -0.653671  -0.000000
    2  O  1  S    0.000000  -0.000000   0.000000  -1.106779  -0.000000
    3  O  1  S    0.000000  -0.000000   0.000000   2.482237  -0.000000
    4  O  1  X    0.899759  -0.000000   0.000000  -0.000000   0.726594
    5  O  1  Y    0.000000  -0.400598  -0.277730  -0.000000  -0.000000
    6  O  1  Z    0.000000  -0.000000   0.000000   0.304017  -0.000000
    7  O  1  X    0.429838  -0.000000   0.000000  -0.000000   0.725011
    8  O  1  Y    0.000000  -1.254353   0.715257  -0.000000  -0.000000
    9  O  1  Z    0.000000  -0.000000   0.000000   1.022473  -0.000000
   10  O  1 XX    0.000000  -0.000000   0.000000  -1.143261  -0.000000
   11  O  1 YY    0.000000  -0.000000   0.000000   0.717219  -0.000000
   12  O  1 ZZ    0.000000  -0.000000   0.000000   0.494735  -0.000000
   13  O  1 XY    0.000000  -0.000000   0.000000  -0.000000  -0.000000
   14  O  1 XZ   -0.216109  -0.000000   0.000000  -0.000000   1.244536
   15  O  1 YZ    0.000000   0.056271   1.309374  -0.000000  -0.000000
   16  H  2  S    0.000000   0.441947   0.383913  -1.134662  -0.000000
   17  H  2  S    0.000000  -0.570761   0.139530  -0.169788  -0.000000
   18  H  2  X   -0.818206  -0.000000   0.000000  -0.000000  -0.931224
   19  H  2  Y    0.000000   1.529187  -0.401884   0.410654  -0.000000
   20  H  2  Z    0.000000   0.827094   0.641367  -0.513414  -0.000000
   21  H  3  S    0.000000  -0.441947  -0.383913  -1.134662  -0.000000
   22  H  3  S    0.000000   0.570761  -0.139530  -0.169788  -0.000000
   23  H  3  X   -0.818206  -0.000000   0.000000  -0.000000  -0.931224
   24  H  3  Y    0.000000   1.529187  -0.401884  -0.410654  -0.000000
   25  H  3  Z    0.000000  -0.827094  -0.641367  -0.513414  -0.000000

                     21         22         23         24         25
                    3.8956     3.9835     5.6965     6.1035     8.8637
                     A2         A1         A1         B2         A1  
    1  O  1  S    0.000000   0.045839   0.988110   0.000000  -2.859484
    2  O  1  S    0.000000   0.094028   2.669415   0.000000  -4.166530
    3  O  1  S    0.000000   0.243614   3.510329   0.000000  -3.769738
    4  O  1  X    0.000000   0.000000  -0.000000   0.000000   0.000000
    5  O  1  Y    0.000000   0.000000  -0.000000   2.141917   0.000000
    6  O  1  Z    0.000000   0.569543   0.410562   0.000000  -1.618400
    7  O  1  X    0.000000   0.000000  -0.000000   0.000000   0.000000
    8  O  1  Y    0.000000   0.000000  -0.000000   1.881613   0.000000
    9  O  1  Z    0.000000   0.605375   0.489284   0.000000  -1.054787
   10  O  1 XX    0.000000  -0.080334  -1.408357   0.000000  -0.708701
   11  O  1 YY    0.000000  -1.295438  -0.994242   0.000000  -1.962027
   12  O  1 ZZ    0.000000   1.321095  -1.282613   0.000000  -0.854734
   13  O  1 XY    1.449667   0.000000  -0.000000   0.000000   0.000000
   14  O  1 XZ    0.000000   0.000000  -0.000000   0.000000   0.000000
   15  O  1 YZ    0.000000   0.000000  -0.000000   1.025757   0.000000
   16  H  2  S    0.000000  -0.087232  -1.424409   5.213187   5.273980
   17  H  2  S    0.000000  -0.061524  -0.390233   0.589256   0.001466
   18  H  2  X    0.965377   0.000000  -0.000000   0.000000   0.000000
   19  H  2  Y    0.000000  -0.592105  -0.353071   1.677544   1.367820
   20  H  2  Z    0.000000  -0.681188   0.363932  -0.885148  -1.566097
   21  H  3  S    0.000000  -0.087232  -1.424409  -5.213187   5.273980
   22  H  3  S    0.000000  -0.061524  -0.390233  -0.589256   0.001466
   23  H  3  X   -0.965377   0.000000  -0.000000   0.000000   0.000000
   24  H  3  Y    0.000000   0.592105   0.353071   1.677544  -1.367820
   25  H  3  Z    0.000000  -0.681188   0.363932   0.885148  -1.566097
 ...... END OF RHF CALCULATION ......
 STEP CPU TIME =     0.01 TOTAL CPU TIME =        0.1 (    0.0 MIN)
 TOTAL WALL CLOCK TIME=        0.1 SECONDS, CPU UTILIZATION IS  85.71%

     ----------------------------------------------------------------
     PROPERTY VALUES FOR THE RHF   SELF-CONSISTENT FIELD WAVEFUNCTION
     ----------------------------------------------------------------

          -----------------
          ENERGY COMPONENTS
          -----------------

         WAVEFUNCTION NORMALIZATION =       1.0000000000

                ONE ELECTRON ENERGY =    -134.9175801412
                TWO ELECTRON ENERGY =      43.0001264646
           NUCLEAR REPULSION ENERGY =      17.3650894946
                                      ------------------
                       TOTAL ENERGY =     -74.5523641820

 ELECTRON-ELECTRON POTENTIAL ENERGY =      43.0001264646
  NUCLEUS-ELECTRON POTENTIAL ENERGY =    -215.2586926858
   NUCLEUS-NUCLEUS POTENTIAL ENERGY =      17.3650894946
                                      ------------------
             TOTAL POTENTIAL ENERGY =    -154.8934767266
               TOTAL KINETIC ENERGY =      80.3411125446
                 VIRIAL RATIO (V/T) =       1.9279478690

  ...... PI ENERGY ANALYSIS ......

 ENERGY ANALYSIS:
            FOCK ENERGY=    -48.9173270342
          BARE H ENERGY=   -134.9175801412
     ELECTRONIC ENERGY =    -91.9174535877
         KINETIC ENERGY=     80.3411125446
          N-N REPULSION=     17.3650894946
           TOTAL ENERGY=    -74.5523640931
        SIGMA PART(1+2)=    -83.5983884778
               (K,V1,2)=     75.5057387549   -194.9060239444     35.8018967117
           PI PART(1+2)=     -8.3190651099
               (K,V1,2)=      4.8353737897    -20.3526687414      7.1982298418
  SIGMA SKELETON, ERROR=    -66.2332989832     -0.0000000000
             MIXED PART= 0.00000E+00 0.00000E+00 0.00000E+00 0.00000E+00
 ...... END OF PI ENERGY ANALYSIS ......
 MEMORY ASSIGNEMENT
 I10, I20, I21, I30, I31, I40, I41, I60 =
****************************************************************
 LAST = ********

          ---------------------------------------
          MULLIKEN AND LOWDIN POPULATION ANALYSES
          ---------------------------------------
 MEMORY ASSIGNMENT
 I10, I30, I40, I50, I60, I70, I41, I51, I61, I71 =
********************************************************************************
 LAST = ********

          ----- MULLIKEN ATOMIC OVERLAP POPULATIONS -----
          (OFF-DIAGONAL ELEMENTS NEED TO BE MULTIPLIED BY 2)

                      1          2          3          4          5

    1  O  1  S    2.022772
    2  O  1  S    0.005715   0.363960
    3  O  1  S    0.004028   0.066730   0.515036
    4  O  1  X    0.000000   0.000000   0.000000   0.840520
    5  O  1  Y    0.000000   0.000000   0.000000   0.000000   0.754097
    6  O  1  Z   -0.000000  -0.000000  -0.000000   0.000000   0.000000
    7  O  1  X    0.000000   0.000000   0.000000   0.289323   0.000000
    8  O  1  Y    0.000000   0.000000   0.000000   0.000000   0.033951
    9  O  1  Z    0.000000  -0.000000  -0.000000   0.000000   0.000000
   10  O  1 XX   -0.000275  -0.008259   0.018135   0.000000   0.000000
   11  O  1 YY   -0.000243   0.004795   0.016804   0.000000   0.000000
   12  O  1 ZZ   -0.000378  -0.001978  -0.024741   0.000000   0.000000
   13  O  1 XY    0.000000   0.000000   0.000000   0.000000   0.000000
   14  O  1 XZ    0.000000   0.000000   0.000000   0.000000   0.000000
   15  O  1 YZ    0.000000   0.000000   0.000000   0.000000   0.000000
   16  H  2  S   -0.009803   0.149146  -0.202596  -0.000000   0.177177
   17  H  2  S   -0.000200   0.010482   0.015435  -0.000000   0.005350
   18  H  2  X    0.000000   0.000000   0.000000   0.024677  -0.000000
   19  H  2  Y   -0.001295   0.007369  -0.005247  -0.000000  -0.012541
   20  H  2  Z   -0.000603   0.007329   0.000626   0.000000   0.008009
   21  H  3  S   -0.009803   0.149146  -0.202596   0.000000   0.177177
   22  H  3  S   -0.000200   0.010482   0.015435   0.000000   0.005350
   23  H  3  X    0.000000   0.000000   0.000000   0.024677   0.000000
   24  H  3  Y   -0.001295   0.007369  -0.005247   0.000000  -0.012541
   25  H  3  Z   -0.000603   0.007329   0.000626   0.000000   0.008009

                      6          7          8          9         10

    6  O  1  Z    0.808386
    7  O  1  X    0.000000   0.396344
    8  O  1  Y    0.000000   0.000000   0.006083
    9  O  1  Z    0.160977   0.000000   0.000000   0.199059
   10  O  1 XX   -0.000000   0.000000   0.000000  -0.000000   0.002414
   11  O  1 YY   -0.000000   0.000000   0.000000  -0.000000   0.000400
   12  O  1 ZZ    0.000000   0.000000   0.000000   0.000000  -0.000718
   13  O  1 XY    0.000000   0.000000   0.000000   0.000000   0.000000
   14  O  1 XZ    0.000000   0.000000   0.000000   0.000000   0.000000
   15  O  1 YZ    0.000000   0.000000   0.000000   0.000000   0.000000
   16  H  2  S    0.099112  -0.000000   0.019381   0.011525  -0.013864
   17  H  2  S   -0.000854  -0.000000   0.001669  -0.002840  -0.000037
   18  H  2  X    0.000000   0.018638  -0.000000   0.000000   0.000000
   19  H  2  Y    0.006746  -0.000000  -0.002013   0.000285  -0.000792
   20  H  2  Z   -0.000669   0.000000   0.000345   0.005472  -0.000301
   21  H  3  S    0.099112   0.000000   0.019381   0.011525  -0.013864
   22  H  3  S   -0.000854   0.000000   0.001669  -0.002840  -0.000037
   23  H  3  X    0.000000   0.018638   0.000000   0.000000   0.000000
   24  H  3  Y    0.006746   0.000000  -0.002013   0.000285  -0.000792
   25  H  3  Z   -0.000669   0.000000   0.000345   0.005472  -0.000301

                     11         12         13         14         15

   11  O  1 YY    0.001277
   12  O  1 ZZ   -0.000597   0.002738
   13  O  1 XY    0.000000   0.000000   0.000000
   14  O  1 XZ    0.000000   0.000000   0.000000   0.002194
   15  O  1 YZ    0.000000   0.000000   0.000000   0.000000   0.007713
   16  H  2  S   -0.006249   0.012259   0.000000  -0.000000   0.009909
   17  H  2  S    0.000485  -0.000497   0.000000  -0.000000   0.000069
   18  H  2  X    0.000000   0.000000  -0.000000   0.000660  -0.000000
   19  H  2  Y   -0.000024   0.000708  -0.000000  -0.000000  -0.000676
   20  H  2  Z    0.000131  -0.000000  -0.000000  -0.000000  -0.000928
   21  H  3  S   -0.006249   0.012259   0.000000   0.000000   0.009909
   22  H  3  S    0.000485  -0.000497   0.000000   0.000000   0.000069
   23  H  3  X    0.000000   0.000000   0.000000   0.000660   0.000000
   24  H  3  Y   -0.000024   0.000708   0.000000   0.000000  -0.000676
   25  H  3  Z    0.000131  -0.000000   0.000000   0.000000  -0.000928

                     16         17         18         19         20

   16  H  2  S    0.766149
   17  H  2  S    0.051234   0.013503
   18  H  2  X    0.000000   0.000000   0.002230
   19  H  2  Y   -0.000000   0.000000   0.000000   0.005031
   20  H  2  Z   -0.000000  -0.000000   0.000000  -0.000000   0.003216
   21  H  3  S   -0.002419  -0.031733   0.000000  -0.002259   0.000000
   22  H  3  S   -0.031733  -0.008156   0.000000  -0.000867   0.000000
   23  H  3  X   -0.000000  -0.000000   0.000969  -0.000000   0.000000
   24  H  3  Y   -0.002259  -0.000867  -0.000000  -0.000194  -0.000000
   25  H  3  Z    0.000000   0.000000   0.000000   0.000000   0.000024

                     21         22         23         24         25

   21  H  3  S    0.766149
   22  H  3  S    0.051234   0.013503
   23  H  3  X    0.000000   0.000000   0.002230
   24  H  3  Y   -0.000000  -0.000000   0.000000   0.005031
   25  H  3  Z   -0.000000  -0.000000   0.000000   0.000000   0.003216

               ----- POPULATIONS IN EACH AO -----
                             MULLIKEN      LOWDIN
              1  O  1  S      2.00782     1.73551
              2  O  1  S      0.77961     0.58488
              3  O  1  S      0.21243     0.32339
              4  O  1  X      1.17920     0.94186
              5  O  1  Y      1.14404     1.09921
              6  O  1  Z      1.17803     1.07618
              7  O  1  X      0.72294     0.56542
              8  O  1  Y      0.07880     0.27288
              9  O  1  Z      0.38892     0.46186
             10  O  1 XX     -0.01829     0.10862
             11  O  1 YY      0.01112     0.18792
             12  O  1 ZZ     -0.00073     0.15298
             13  O  1 XY      0.00000     0.00000
             14  O  1 XZ      0.00351     0.00008
             15  O  1 YZ      0.02446     0.04245
             16  H  2  S      1.02697     0.52044
             17  H  2  S      0.05304     0.10392
             18  H  2  X      0.04717     0.24633
             19  H  2  Y     -0.00577     0.16642
             20  H  2  Z      0.02265     0.18628
             21  H  3  S      1.02697     0.52044
             22  H  3  S      0.05304     0.10392
             23  H  3  X      0.04717     0.24633
             24  H  3  Y     -0.00577     0.16642
             25  H  3  Z      0.02265     0.18628

          ----- MULLIKEN ATOMIC OVERLAP POPULATIONS -----
          (OFF-DIAGONAL ELEMENTS NEED TO BE MULTIPLIED BY 2)

             1           2           3

    1    7.0499306
    2    0.3309650   0.8925975
    3    0.3309650  -0.0794928   0.8925975

          TOTAL MULLIKEN AND LOWDIN ATOMIC POPULATIONS
       ATOM         MULL.POP.                    LOW.POP.

          TOTAL MULLIKEN AND LOWDIN ATOMIC POPULATIONS
       ATOM         MULL.POP.    CHARGE          LOW.POP.     CHARGE
    1 OXYGEN        7.711861                     7.553226
    1 OXYGEN        7.711861    0.288139         7.553226    0.446774
    2 HYDROGEN      1.144070                     1.223387
    2 HYDROGEN      1.144070   -0.144070         1.223387   -0.223387
    3 HYDROGEN      1.144070                     1.223387
    3 HYDROGEN      1.144070   -0.144070         1.223387   -0.223387

          ---------------------
          ELECTROSTATIC MOMENTS
          ---------------------

 POINT   1           X           Y           Z (BOHR)    CHARGE
                -0.000000    0.000000    0.065642        0.00 (A.U.)
         DX          DY          DZ         /D/  (DEBYE)
     0.000000   -0.000000    1.638293    1.638293
 ...... END OF PROPERTY EVALUATION ......
 STEP CPU TIME =     0.01 TOTAL CPU TIME =        0.1 (    0.0 MIN)
 TOTAL WALL CLOCK TIME=        0.1 SECONDS, CPU UTILIZATION IS  87.50%

 GUGA CI OPTIONS      NRNFG     NPFLG
 ------------------------------------

 -DRT- TABLE          1         0
 TRANSFORMATION       1         2
 ENERGY MATRIX        1         0
 DIAGONALIZATION      1         0
 1E-DENSITY MATRIX    1         0
 2E-DENSITY MATRIX    0         0
 LAGRANGIAN MATRIX    0         0
------------------------------------

 -DRT- TABLE          0         0
 TRANSFORMATION   

          -----------------------     ----------------------------
          GUGA DISTINCT ROW TABLE     WRITTEN BY B.R.BROOKS,P.SAXE
          -----------------------     ----------------------------

      GROUP=C2V          NPRT=       0
       FORS=       F   INTACT=       F
       FOCI=       F   MXNINT=   50000
       SOCI=       F   MXNEME=   10000
     IEXCIT=       2

      -CORE-    -INTERNAL-  -EXTERNAL-
     NFZC=   0   NDOC=   5   NEXT=   0
     NMCC=   0   NAOS=   0   NFZV=   0
                 NBOS=   0
                 NALP=   0
                 NVAL=  20

 THE MAXIMUM ELECTRON EXCITATION WILL BE   2

 SYMMETRIES FOR THE   0 CORE,  25 ACTIVE,   0 EXTERNAL MO-S ARE
   ACTIVE= A1    A1    B2    A1    B1    A1    B2    A1    B1    B2  
           DOC   DOC   DOC   DOC   DOC   VAL   VAL   VAL   VAL   VAL 
   ACTIVE= B2    A1    A1    A2    A1    B1    B2    B2    A1    B1  
           VAL   VAL   VAL   VAL   VAL   VAL   VAL   VAL   VAL   VAL 
   ACTIVE= A2    A1    A1    B2    A1  
           VAL   VAL   VAL   VAL   VAL 

 MOLECULAR CHARGE          =    0
 NUMBER OF ALPHA ELECTRONS =    5
 NUMBER OF  BETA ELECTRONS =    5

 THE ELECTRONIC STATE IS  1-A1  

 THE DISTINCT ROW TABLE HAS       158 ROWS.
  THE WAVEFUNCTION CONTAINS      1468 WALKS (CSF-S).

 TOTAL NUMBER OF INTEGRALS =      16435
 NUMBER OF INTEGRALS/GROUP =      16435
 NUMBER OF INTEGRAL GROUPS =          1
 MAXIMUM RECORD SIZES ARE    1468 FOR UNIT 11    1468 FOR UNIT 12
                            30001 FOR UNIT 15   30001 FOR UNIT 16
 ...... END OF -DRT- GENERATION ...... 
 STEP CPU TIME =     0.62 TOTAL CPU TIME =        0.7 (    0.0 MIN)
 TOTAL WALL CLOCK TIME=        1.2 SECONDS, CPU UTILIZATION IS  56.56%

     --------------------------------------------
     PARTIAL TWO ELECTRON INTEGRAL TRANSFORMATION
     --------------------------------------------

 NUMBER OF CORE MOLECULAR ORBITALS     =    0
 NUMBER OF OCCUPIED MOLECULAR ORBITALS =   25
 TOTAL NUMBER OF MOLECULAR ORBITALS    =   25
 TOTAL NUMBER OF ATOMIC ORBITALS       =   25
 THRESHOLD FOR KEEPING TRANSFORMED 2E- INTEGRALS = 1.000E-09
 AO INTEGRALS WILL BE READ IN FROM DISK...
 TRANSFORMATION VECTORS

             1           2           3           4           5

    1   -1.0037973  -0.0613899   0.0000000   0.0029007   0.0000000
    2   -0.0099810   0.3889013   0.0000000   0.1750313   0.0000000
    3   -0.0026076  -0.1026601   0.0000000   0.4969627   0.0000000
    4    0.0000000   0.0000000   0.0000000   0.0000000   0.6482747
    5    0.0000000   0.0000000  -0.6140428   0.0000000   0.0000000
    6   -0.0052675   0.2202445   0.0000000  -0.5963705   0.0000000
    7    0.0000000   0.0000000   0.0000000   0.0000000   0.4451652
    8    0.0000000   0.0000000  -0.0551503   0.0000000   0.0000000
    9   -0.0003373  -0.0898432   0.0000000  -0.3024199   0.0000000
   10    0.0036327  -0.0266551   0.0000000   0.0219791   0.0000000
   11    0.0018750  -0.0014864   0.0000000   0.0251532   0.0000000
   12    0.0018463   0.0117766   0.0000000  -0.0350295   0.0000000
   13    0.0000000   0.0000000   0.0000000   0.0000000   0.0000000
   14    0.0000000   0.0000000   0.0000000   0.0000000   0.0331192
   15    0.0000000   0.0000000  -0.0620995   0.0000000   0.0000000
   16    0.0034065   0.3976360   0.4389720  -0.1795890   0.0000000
   17   -0.0001591   0.0213849   0.0756360   0.0239443   0.0000000
   18    0.0000000   0.0000000   0.0000000   0.0000000   0.0333922
   19    0.0010696   0.0302338   0.0377551  -0.0132233   0.0000000
   20   -0.0001365  -0.0272635  -0.0281089  -0.0086310   0.0000000
   21    0.0034065   0.3976360  -0.4389720  -0.1795890   0.0000000
   22   -0.0001591   0.0213849  -0.0756360   0.0239443   0.0000000
   23    0.0000000   0.0000000   0.0000000   0.0000000   0.0333922
   24   -0.0010696  -0.0302338   0.0377551   0.0132233   0.0000000
   25   -0.0001365  -0.0272635   0.0281089  -0.0086310   0.0000000

             6           7           8           9          10

    1   -0.0373216   0.0000000   0.0579128   0.0000000   0.0000000
    2    0.1085678   0.0000000   0.0524828   0.0000000   0.0000000
    3    1.2646513   0.0000000  -1.4082697   0.0000000   0.0000000
    4    0.0000000   0.0000000   0.0000000   0.6054635   0.0000000
    5    0.0000000  -0.1804695   0.0000000   0.0000000  -0.2670362
    6    0.0488655   0.0000000   0.5482348   0.0000000   0.0000000
    7    0.0000000   0.0000000   0.0000000  -1.3531592   0.0000000
    8    0.0000000  -0.6551620   0.0000000   0.0000000   2.3788599
    9    0.0286795   0.0000000  -1.6098476   0.0000000   0.0000000
   10   -0.0565518   0.0000000   0.0091517   0.0000000   0.0000000
   11   -0.0327383   0.0000000   0.0194477   0.0000000   0.0000000
   12   -0.0464086   0.0000000  -0.0957242   0.0000000   0.0000000
   13    0.0000000   0.0000000   0.0000000   0.0000000   0.0000000
   14    0.0000000   0.0000000   0.0000000  -0.0701220   0.0000000
   15    0.0000000  -0.0299723   0.0000000   0.0000000   0.0580432
   16    0.0184431   0.0035894   0.5843353   0.0000000   0.9743377
   17   -0.9141386  -2.7517261   0.3041452   0.0000000   1.6667376
   18    0.0000000   0.0000000   0.0000000   0.3906083   0.0000000
   19   -0.0178214   0.0319521   0.1160657   0.0000000  -0.3303935
   20    0.0181526   0.0314475   0.2331530   0.0000000   0.1056300
   21    0.0184431  -0.0035894   0.5843353   0.0000000  -0.9743377
   22   -0.9141386   2.7517261   0.3041452   0.0000000  -1.6667376
   23    0.0000000   0.0000000   0.0000000   0.3906083   0.0000000
   24    0.0178214   0.0319521  -0.1160657   0.0000000  -0.3303935
   25    0.0181526  -0.0314475   0.2331530   0.0000000  -0.1056300

            11          12          13          14          15

    1    0.0000000  -0.1606116   0.0342226   0.0000000  -0.6774181
    2    0.0000000  -0.4683830  -0.2128067   0.0000000  -1.1345944
    3    0.0000000   3.2714767   0.7444566   0.0000000   2.6211041
    4    0.0000000   0.0000000   0.0000000   0.0000000   0.0000000
    5   -0.5359018   0.0000000   0.0000000   0.0000000   0.0000000
    6    0.0000000  -0.1033032   0.1177393   0.0000000   0.6989584
    7    0.0000000   0.0000000   0.0000000   0.0000000   0.0000000
    8    0.7337414   0.0000000   0.0000000   0.0000000   0.0000000
    9    0.0000000   0.1613682  -0.2372732   0.0000000   0.8403568
   10    0.0000000  -0.1314848  -0.1709170   0.0000000   0.1563617
   11    0.0000000  -0.0295741  -0.1431103   0.0000000  -0.2487027
   12    0.0000000  -0.1843027  -0.1419238   0.0000000  -0.2484634
   13    0.0000000   0.0000000   0.0000000   0.0334670   0.0000000
   14    0.0000000   0.0000000   0.0000000   0.0000000   0.0000000
   15    0.0243364   0.0000000   0.0000000   0.0000000   0.0000000
   16   -0.1752991  -0.9099167   0.5194302   0.0000000  -0.7756736
   17    1.3026885  -0.5456722  -0.3881471   0.0000000  -0.2938044
   18    0.0000000   0.0000000   0.0000000   0.9627956   0.0000000
   19    0.3299991   0.1646949  -0.6224503   0.0000000   0.0936235
   20   -0.5699609   0.6086573   0.0820069   0.0000000  -0.6822429
   21    0.1752991  -0.9099167   0.5194302   0.0000000  -0.7756736
   22   -1.3026885  -0.5456722  -0.3881471   0.0000000  -0.2938044
   23    0.0000000   0.0000000   0.0000000  -0.9627956   0.0000000
   24    0.3299991  -0.1646949   0.6224503   0.0000000  -0.0936235
   25    0.5699609   0.6086573   0.0820069   0.0000000  -0.6822429

            16          17          18          19          20

    1    0.0000000   0.0000000   0.0000000   0.6536705   0.0000000
    2    0.0000000   0.0000000   0.0000000   1.1067790   0.0000000
    3    0.0000000   0.0000000   0.0000000  -2.4822370   0.0000000
    4    0.8997586   0.0000000   0.0000000   0.0000000  -0.7265943
    5    0.0000000   0.4005977  -0.2777304   0.0000000   0.0000000
    6    0.0000000   0.0000000   0.0000000  -0.3040170   0.0000000
    7    0.4298375   0.0000000   0.0000000   0.0000000  -0.7250112
    8    0.0000000   1.2543526   0.7152574   0.0000000   0.0000000
    9    0.0000000   0.0000000   0.0000000  -1.0224731   0.0000000
   10    0.0000000   0.0000000   0.0000000   1.1432611   0.0000000
   11    0.0000000   0.0000000   0.0000000  -0.7172188   0.0000000
   12    0.0000000   0.0000000   0.0000000  -0.4947346   0.0000000
   13    0.0000000   0.0000000   0.0000000   0.0000000   0.0000000
   14   -0.2161089   0.0000000   0.0000000   0.0000000  -1.2445359
   15    0.0000000  -0.0562711   1.3093743   0.0000000   0.0000000
   16    0.0000000  -0.4419473   0.3839133   1.1346624   0.0000000
   17    0.0000000   0.5707610   0.1395300   0.1697881   0.0000000
   18   -0.8182059   0.0000000   0.0000000   0.0000000   0.9312239
   19    0.0000000  -1.5291868  -0.4018842  -0.4106536   0.0000000
   20    0.0000000  -0.8270938   0.6413673   0.5134142   0.0000000
   21    0.0000000   0.4419473  -0.3839133   1.1346624   0.0000000
   22    0.0000000  -0.5707610  -0.1395300   0.1697881   0.0000000
   23   -0.8182059   0.0000000   0.0000000   0.0000000   0.9312239
   24    0.0000000  -1.5291868  -0.4018842   0.4106536   0.0000000
   25    0.0000000   0.8270938  -0.6413673   0.5134142   0.0000000

            21          22          23          24          25

    1    0.0000000   0.0458386  -0.9881099   0.0000000  -2.8594837
    2    0.0000000   0.0940278  -2.6694155   0.0000000  -4.1665301
    3    0.0000000   0.2436141  -3.5103294   0.0000000  -3.7697383
    4    0.0000000   0.0000000   0.0000000   0.0000000   0.0000000
    5    0.0000000   0.0000000   0.0000000   2.1419173   0.0000000
    6    0.0000000   0.5695432  -0.4105624   0.0000000  -1.6184004
    7    0.0000000   0.0000000   0.0000000   0.0000000   0.0000000
    8    0.0000000   0.0000000   0.0000000   1.8816130   0.0000000
    9    0.0000000   0.6053745  -0.4892841   0.0000000  -1.0547867
   10    0.0000000  -0.0803336   1.4083573   0.0000000  -0.7087007
   11    0.0000000  -1.2954376   0.9942415   0.0000000  -1.9620266
   12    0.0000000   1.3210950   1.2826135   0.0000000  -0.8547338
   13    1.4496671   0.0000000   0.0000000   0.0000000   0.0000000
   14    0.0000000   0.0000000   0.0000000   0.0000000   0.0000000
   15    0.0000000   0.0000000   0.0000000   1.0257573   0.0000000
   16    0.0000000  -0.0872323   1.4244095   5.2131869   5.2739800
   17    0.0000000  -0.0615241   0.3902328   0.5892557   0.0014664
   18    0.9653765   0.0000000   0.0000000   0.0000000   0.0000000
   19    0.0000000  -0.5921045   0.3530711   1.6775438   1.3678199
   20    0.0000000  -0.6811878  -0.3639324  -0.8851484  -1.5660966
   21    0.0000000  -0.0872323   1.4244095  -5.2131869   5.2739800
   22    0.0000000  -0.0615241   0.3902328  -0.5892557   0.0014664
   23   -0.9653765   0.0000000   0.0000000   0.0000000   0.0000000
   24    0.0000000   0.5921045  -0.3530711   1.6775438  -1.3678199
   25    0.0000000  -0.6811878  -0.3639324   0.8851484  -1.5660966
 H = T + V-NE INTEGRALS, IN MO BASIS,
 THIS INCLUDES ANY FROZEN CORE 2E- TERMS!

             1           2           3           4           5

    1  -34.0033634
    2   -0.6598671  -9.2869150
    3    0.0000000   0.0000000  -8.5908491
    4   -0.2568026   0.2607734   0.0000000  -7.8190150
    5    0.0000000   0.0000000   0.0000000   0.0000000  -7.7586475
    6   -0.1923283  -0.8433631   0.0000000  -0.2311102   0.0000000
    7    0.0000000   0.0000000  -0.8817281   0.0000000   0.0000000
    8    0.0788361  -0.4317393   0.0000000   1.7728738   0.0000000
    9    0.0000000   0.0000000   0.0000000   0.0000000  -2.0177541
   10    0.0000000   0.0000000  -0.8320355   0.0000000   0.0000000
   11    0.0000000   0.0000000  -1.3437950   0.0000000   0.0000000
   12    0.2440656   0.9216929   0.0000000   0.2460524   0.0000000
   13    0.3198999   0.9559960   0.0000000   0.3937557   0.0000000
   14    0.0000000   0.0000000   0.0000000   0.0000000   0.0000000
   15    0.0643181  -0.0321299   0.0000000   1.0285789   0.0000000
   16    0.0000000   0.0000000   0.0000000   0.0000000  -1.0314663
   17    0.0000000   0.0000000   0.5957172   0.0000000   0.0000000
   18    0.0000000   0.0000000   0.0530521   0.0000000   0.0000000
   19   -0.0438531   0.0596857   0.0000000  -0.4286132   0.0000000
   20    0.0000000   0.0000000   0.0000000   0.0000000   0.6973183
   21    0.0000000   0.0000000   0.0000000   0.0000000   0.0000000
   22   -0.0009229  -0.2073905   0.0000000   0.5043297   0.0000000
   23    0.7687893   1.2464524   0.0000000   0.1979154   0.0000000
   24    0.0000000   0.0000000   1.1319335   0.0000000   0.0000000
   25   -0.4684656  -0.0051382   0.0000000  -0.7716708   0.0000000

             6           7           8           9          10

    6   -3.1812247
    7    0.0000000  -2.7808441
    8   -0.2410176   0.0000000  -4.4383969
    9    0.0000000   0.0000000   0.0000000  -4.6569772
   10    0.0000000  -0.5318321   0.0000000   0.0000000  -3.8825789
   11    0.0000000  -0.9000810   0.0000000   0.0000000   0.1608390
   12    0.8257670   0.0000000   0.0849084   0.0000000   0.0000000
   13    0.7303068   0.0000000  -0.1487715   0.0000000   0.0000000
   14    0.0000000   0.0000000   0.0000000   0.0000000   0.0000000
   15    0.2088368   0.0000000  -0.8494769   0.0000000   0.0000000
   16    0.0000000   0.0000000   0.0000000  -1.0105311   0.0000000
   17    0.0000000   0.2530312   0.0000000   0.0000000   0.5965922
   18    0.0000000   0.0085519   0.0000000   0.0000000   0.7867163
   19   -0.0528859   0.0000000   0.6366184   0.0000000   0.0000000
   20    0.0000000   0.0000000   0.0000000   1.1295067   0.0000000
   21    0.0000000   0.0000000   0.0000000   0.0000000   0.0000000
   22   -0.0494067   0.0000000  -0.8322639   0.0000000   0.0000000
   23    0.4183416   0.0000000   0.1940059   0.0000000   0.0000000
   24    0.0000000   0.2839908   0.0000000   0.0000000   0.7591688
   25    0.0245498   0.0000000   0.9070413   0.0000000   0.0000000

            11          12          13          14          15

   11   -4.6870528
   12    0.0000000  -4.1771870
   13    0.0000000   0.1967348  -4.3668590
   14    0.0000000   0.0000000   0.0000000  -4.1876057
   15    0.0000000   0.1685147   0.0282511   0.0000000  -4.7208480
   16    0.0000000   0.0000000   0.0000000   0.0000000   0.0000000
   17    0.3815968   0.0000000   0.0000000   0.0000000   0.0000000
   18   -0.9565372   0.0000000   0.0000000   0.0000000   0.0000000
   19    0.0000000  -0.1913498   0.5964216   0.0000000  -0.6033128
   20    0.0000000   0.0000000   0.0000000   0.0000000   0.0000000
   21    0.0000000   0.0000000   0.0000000   1.0534113   0.0000000
   22    0.0000000  -0.6437263   0.6301301   0.0000000   0.0614629
   23    0.0000000  -1.2452416  -1.2531564   0.0000000  -0.0323790
   24    1.5737262   0.0000000   0.0000000   0.0000000   0.0000000
   25    0.0000000   0.0492389   0.1740225   0.0000000   1.4381963

            16          17          18          19          20

   16   -4.9714633
   17    0.0000000  -3.1143529
   18    0.0000000  -0.0106708  -3.7287241
   19    0.0000000   0.0000000   0.0000000  -3.5375962
   20   -0.3640819   0.0000000   0.0000000   0.0000000  -3.8134393
   21    0.0000000   0.0000000   0.0000000   0.0000000   0.0000000
   22    0.0000000   0.0000000   0.0000000   0.0765625   0.0000000
   23    0.0000000   0.0000000   0.0000000   0.0134190   0.0000000
   24    0.0000000  -0.7440385   0.4249213   0.0000000   0.0000000
   25    0.0000000   0.0000000   0.0000000  -0.5923009   0.0000000

            21          22          23          24          25

   21   -3.4572374
   22    0.0000000  -3.5842919
   23    0.0000000   0.1635578  -3.1829343
   24    0.0000000   0.0000000   0.0000000  -2.9624659
   25    0.0000000   0.4266843   0.4488772   0.0000000   0.0430354
 T, IN MO BASIS

             1           2           3           4           5

    1   29.0976887
    2    7.8192798   3.4274022
    3    0.0000000   0.0000000   2.7369948
    4    2.6910357   0.0461406   0.0000000   2.4907837
    5    0.0000000   0.0000000   0.0000000   0.0000000   2.4176869
    6    2.5870784   1.1433655   0.0000000   0.2407075   0.0000000
    7    0.0000000   0.0000000   0.7179039   0.0000000   0.0000000
    8   -0.7748575   0.4638108   0.0000000  -1.6260075   0.0000000
    9    0.0000000   0.0000000   0.0000000   0.0000000   1.7535713
   10    0.0000000   0.0000000   1.0312975   0.0000000   0.0000000
   11    0.0000000   0.0000000   1.3153022   0.0000000   0.0000000
   12   -2.9763746  -1.5075793   0.0000000  -0.2283866   0.0000000
   13   -4.2100691  -1.4525795   0.0000000  -0.6472539   0.0000000
   14    0.0000000   0.0000000   0.0000000   0.0000000   0.0000000
   15    0.5132618   0.1779649   0.0000000  -1.0741192   0.0000000
   16    0.0000000   0.0000000   0.0000000   0.0000000   1.3305487
   17    0.0000000   0.0000000  -0.8073397   0.0000000   0.0000000
   18    0.0000000   0.0000000  -0.1581497   0.0000000   0.0000000
   19   -0.4755950  -0.2912197   0.0000000   0.4958142   0.0000000
   20    0.0000000   0.0000000   0.0000000   0.0000000  -1.0390290
   21    0.0000000   0.0000000   0.0000000   0.0000000   0.0000000
   22    0.1693831   0.2670855   0.0000000  -0.7356787   0.0000000
   23  -11.4407357  -3.6684038   0.0000000  -0.9491847   0.0000000
   24    0.0000000   0.0000000  -1.7377632   0.0000000   0.0000000
   25   10.8445898   2.5748125   0.0000000   2.2162074   0.0000000

             6           7           8           9          10

    6    0.6086559
    7    0.0000000   0.4769152
    8    0.0482919   0.0000000   2.1770399
    9    0.0000000   0.0000000   0.0000000   2.3724563
   10    0.0000000   0.2235893   0.0000000   0.0000000   1.6961364
   11    0.0000000   0.4023335   0.0000000   0.0000000   0.2207932
   12   -0.4734546   0.0000000  -0.1493873   0.0000000   0.0000000
   13   -0.5239073   0.0000000   0.2006663   0.0000000   0.0000000
   14    0.0000000   0.0000000   0.0000000   0.0000000   0.0000000
   15    0.0347408   0.0000000   0.8030110   0.0000000   0.0000000
   16    0.0000000   0.0000000   0.0000000   1.1091014   0.0000000
   17    0.0000000  -0.2280625   0.0000000   0.0000000  -0.4022698
   18    0.0000000  -0.0009004   0.0000000   0.0000000  -0.3982619
   19   -0.0675141   0.0000000  -0.4486519   0.0000000   0.0000000
   20    0.0000000   0.0000000   0.0000000  -0.9563276   0.0000000
   21    0.0000000   0.0000000   0.0000000   0.0000000   0.0000000
   22    0.0463821   0.0000000   0.6569010   0.0000000   0.0000000
   23   -1.2727764   0.0000000   0.0659402   0.0000000   0.0000000
   24    0.0000000  -0.5342041   0.0000000   0.0000000  -0.4728157
   25    0.9229895   0.0000000  -1.3561580   0.0000000   0.0000000

            11          12          13          14          15

   11    2.8848933
   12    0.0000000   2.4984814
   13    0.0000000   0.3615043   2.8812441
   14    0.0000000   0.0000000   0.0000000   2.2604316
   15    0.0000000  -0.0757205  -0.0854851   0.0000000   3.7537366
   16    0.0000000   0.0000000   0.0000000   0.0000000   0.0000000
   17   -0.4616221   0.0000000   0.0000000   0.0000000   0.0000000
   18    0.5587858   0.0000000   0.0000000   0.0000000   0.0000000
   19    0.0000000   0.1664772  -0.1626903   0.0000000  -0.0669052
   20    0.0000000   0.0000000   0.0000000   0.0000000   0.0000000
   21    0.0000000   0.0000000   0.0000000  -0.4577428   0.0000000
   22    0.0000000   0.2626631  -0.3195703   0.0000000   0.4186299
   23    0.0000000   1.5715162   2.1778869   0.0000000  -0.5637322
   24   -1.9387914   0.0000000   0.0000000   0.0000000   0.0000000
   25    0.0000000  -1.0407724  -1.4936534   0.0000000  -1.2943845

            16          17          18          19          20

   16    3.9781516
   17    0.0000000   3.3124524
   18    0.0000000   0.0230633   4.9687218
   19    0.0000000   0.0000000   0.0000000   4.8260448
   20   -0.4299809   0.0000000   0.0000000   0.0000000   5.3822986
   21    0.0000000   0.0000000   0.0000000   0.0000000   0.0000000
   22    0.0000000   0.0000000   0.0000000  -0.1704055   0.0000000
   23    0.0000000   0.0000000   0.0000000   0.2531411   0.0000000
   24    0.0000000   0.9548021  -0.9089336   0.0000000   0.0000000
   25    0.0000000   0.0000000   0.0000000   0.1801265   0.0000000

            21          22          23          24          25

   21    5.1267595
   22    0.0000000   5.6745541
   23    0.0000000  -0.3608317  12.2464269
   24    0.0000000   0.0000000   0.0000000  11.3496094
   25    0.0000000  -0.7971537  -3.5346021   0.0000000  17.6076847
 V-NE, IN MO BASIS

             1           2           3           4           5

    1  -63.1010520
    2   -8.4791468 -12.7143172
    3    0.0000000   0.0000000 -11.3278439
    4   -2.9478382   0.2146328   0.0000000 -10.3097988
    5    0.0000000   0.0000000   0.0000000   0.0000000 -10.1763344
    6   -2.7794067  -1.9867286   0.0000000  -0.4718177   0.0000000
    7    0.0000000   0.0000000  -1.5996320   0.0000000   0.0000000
    8    0.8536936  -0.8955502   0.0000000   3.3988812   0.0000000
    9    0.0000000   0.0000000   0.0000000   0.0000000  -3.7713254
   10    0.0000000   0.0000000  -1.8633330   0.0000000   0.0000000
   11    0.0000000   0.0000000  -2.6590972   0.0000000   0.0000000
   12    3.2204402   2.4292722   0.0000000   0.4744390   0.0000000
   13    4.5299690   2.4085755   0.0000000   1.0410096   0.0000000
   14    0.0000000   0.0000000   0.0000000   0.0000000   0.0000000
   15   -0.4489436  -0.2100948   0.0000000   2.1026981   0.0000000
   16    0.0000000   0.0000000   0.0000000   0.0000000  -2.3620150
   17    0.0000000   0.0000000   1.4030569   0.0000000   0.0000000
   18    0.0000000   0.0000000   0.2112018   0.0000000   0.0000000
   19    0.4317419   0.3509055   0.0000000  -0.9244274   0.0000000
   20    0.0000000   0.0000000   0.0000000   0.0000000   1.7363473
   21    0.0000000   0.0000000   0.0000000   0.0000000   0.0000000
   22   -0.1703060  -0.4744761   0.0000000   1.2400084   0.0000000
   23   12.2095250   4.9148562   0.0000000   1.1471001   0.0000000
   24    0.0000000   0.0000000   2.8696968   0.0000000   0.0000000
   25  -11.3130553  -2.5799507   0.0000000  -2.9878782   0.0000000

             6           7           8           9          10

    6   -3.7898806
    7    0.0000000  -3.2577593
    8   -0.2893095   0.0000000  -6.6154368
    9    0.0000000   0.0000000   0.0000000  -7.0294334
   10    0.0000000  -0.7554214   0.0000000   0.0000000  -5.5787153
   11    0.0000000  -1.3024145   0.0000000   0.0000000  -0.0599542
   12    1.2992216   0.0000000   0.2342957   0.0000000   0.0000000
   13    1.2542141   0.0000000  -0.3494378   0.0000000   0.0000000
   14    0.0000000   0.0000000   0.0000000   0.0000000   0.0000000
   15    0.1740960   0.0000000  -1.6524880   0.0000000   0.0000000
   16    0.0000000   0.0000000   0.0000000  -2.1196325   0.0000000
   17    0.0000000   0.4810937   0.0000000   0.0000000   0.9988620
   18    0.0000000   0.0094523   0.0000000   0.0000000   1.1849782
   19    0.0146282   0.0000000   1.0852703   0.0000000   0.0000000
   20    0.0000000   0.0000000   0.0000000   2.0858343   0.0000000
   21    0.0000000   0.0000000   0.0000000   0.0000000   0.0000000
   22   -0.0957888   0.0000000  -1.4891649   0.0000000   0.0000000
   23    1.6911180   0.0000000   0.1280658   0.0000000   0.0000000
   24    0.0000000   0.8181949   0.0000000   0.0000000   1.2319845
   25   -0.8984397   0.0000000   2.2631993   0.0000000   0.0000000

            11          12          13          14          15

   11   -7.5719460
   12    0.0000000  -6.6756684
   13    0.0000000  -0.1647695  -7.2481031
   14    0.0000000   0.0000000   0.0000000  -6.4480373
   15    0.0000000   0.2442352   0.1137362   0.0000000  -8.4745846
   16    0.0000000   0.0000000   0.0000000   0.0000000   0.0000000
[...]
   21  H  3  S   -0.002555   0.375017   0.429283   0.211057   0.000000
   22  H  3  S    0.000021   0.026220   0.084610  -0.025161   0.000000
   23  H  3  X   -0.000000   0.000000  -0.000000  -0.000000   0.031565
   24  H  3  Y    0.000945  -0.027399  -0.034230  -0.015087   0.000000
   25  H  3  Z    0.000040  -0.026872  -0.025439   0.006595   0.000000

                      6          7          8          9         10
                    0.0117     0.0108     0.0081     0.0063     0.0055
                     B1         A1         B2         A1         B2  
    1  O  1  S   -0.000000  -0.128735  -0.000000   0.440898  -0.000000
    2  O  1  S   -0.000000  -0.552445  -0.000000   1.289106  -0.000000
    3  O  1  S   -0.000000   0.929882  -0.000000   0.649072  -0.000000
    4  O  1  X    1.048742   0.000000  -0.000000   0.000000  -0.000000
    5  O  1  Y   -0.000000   0.000000   1.183325   0.000000   0.453288
    6  O  1  Z   -0.000000   0.970162  -0.000000   0.594992  -0.000000
    7  O  1  X   -0.887958   0.000000  -0.000000   0.000000  -0.000000
    8  O  1  Y   -0.000000   0.000000   0.008851   0.000000  -0.658181
    9  O  1  Z   -0.000000  -0.676133  -0.000000   0.132871  -0.000000
   10  O  1 XX   -0.000000   0.074601  -0.000000   0.049206  -0.000000
   11  O  1 YY   -0.000000   0.144446  -0.000000  -0.540732  -0.000000
   12  O  1 ZZ   -0.000000   0.139808  -0.000000  -0.203418  -0.000000
   13  O  1 XY   -0.000000   0.000000  -0.000000   0.000000  -0.000000
   14  O  1 XZ    0.036894   0.000000  -0.000000   0.000000  -0.000000
   15  O  1 YZ   -0.000000   0.000000  -0.138646   0.000000   0.738254
   16  H  2  S   -0.000000  -0.477329   1.224359  -0.838316  -0.027407
   17  H  2  S   -0.000000   0.122039   0.105435  -0.087840  -0.106635
   18  H  2  X   -0.165266   0.000000  -0.000000   0.000000  -0.000000
   19  H  2  Y   -0.000000  -0.122641   0.033473   0.039702  -0.124127
   20  H  2  Z   -0.000000   0.000244  -0.054709  -0.129575  -0.126009
   21  H  3  S   -0.000000  -0.477329  -1.224359  -0.838316   0.027407
   22  H  3  S   -0.000000   0.122039  -0.105435  -0.087840   0.106635
   23  H  3  X   -0.165266   0.000000  -0.000000   0.000000  -0.000000
   24  H  3  Y   -0.000000   0.122641   0.033473  -0.039702  -0.124127
   25  H  3  Z   -0.000000   0.000244   0.054709  -0.129575   0.126009

                     11         12         13         14         15
                    0.0051     0.0048     0.0044     0.0044     0.0005
                     A1         A2         A1         B1         A1  
    1  O  1  S   -0.217367  -0.000000   0.168277  -0.000000   0.673474
    2  O  1  S   -0.639705  -0.000000   0.395147  -0.000000   1.165128
    3  O  1  S    1.014653  -0.000000  -0.327903  -0.000000   5.398574
    4  O  1  X    0.000000  -0.000000  -0.000000  -0.073529   0.000000
    5  O  1  Y    0.000000  -0.000000  -0.000000  -0.000000   0.000000
    6  O  1  Z   -0.171855  -0.000000   0.050742  -0.000000   0.975492
    7  O  1  X    0.000000  -0.000000  -0.000000  -0.254472   0.000000
    8  O  1  Y    0.000000  -0.000000  -0.000000  -0.000000   0.000000
    9  O  1  Z    0.354220  -0.000000  -0.343795  -0.000000   2.138194
   10  O  1 XX    0.578489  -0.000000  -0.710161  -0.000000  -0.844302
   11  O  1 YY   -0.491819  -0.000000  -0.245598  -0.000000   0.872230
   12  O  1 ZZ    0.373989  -0.000000   0.790347  -0.000000   0.351921
   13  O  1 XY    0.000000   0.798698  -0.000000  -0.000000   0.000000
   14  O  1 XZ    0.000000  -0.000000  -0.000000   0.892060   0.000000
   15  O  1 YZ    0.000000  -0.000000  -0.000000  -0.000000   0.000000
   16  H  2  S   -0.350915  -0.000000   0.019404  -0.000000  -3.834288
   17  H  2  S   -0.019193  -0.000000   0.018485  -0.000000  -0.236014
   18  H  2  X    0.000000  -0.240938  -0.000000   0.160414   0.000000
   19  H  2  Y    0.065578  -0.000000   0.031157  -0.000000  -0.257754
   20  H  2  Z    0.150022  -0.000000   0.097560  -0.000000   0.056511
   21  H  3  S   -0.350915  -0.000000   0.019404  -0.000000  -3.834288
   22  H  3  S   -0.019193  -0.000000   0.018485  -0.000000  -0.236014
   23  H  3  X    0.000000   0.240938  -0.000000   0.160414   0.000000
   24  H  3  Y   -0.065578  -0.000000  -0.031157  -0.000000   0.257754
   25  H  3  Z    0.150022  -0.000000   0.097560  -0.000000   0.056511

                     16         17         18         19         20
                    0.0004     0.0004     0.0004     0.0003     0.0003
                     B2         B1         B2         A2         A1  
    1  O  1  S    0.000000   0.000000  -0.000000   0.000000   0.458620
    2  O  1  S    0.000000   0.000000  -0.000000   0.000000   0.424755
    3  O  1  S    0.000000   0.000000  -0.000000   0.000000   0.004088
    4  O  1  X    0.000000   0.773941  -0.000000   0.000000   0.000000
    5  O  1  Y    1.587990   0.000000   0.644943   0.000000   0.000000
    6  O  1  Z    0.000000   0.000000  -0.000000   0.000000   0.729460
    7  O  1  X    0.000000   1.298194  -0.000000   0.000000   0.000000
    8  O  1  Y    1.662566   0.000000   1.192374   0.000000   0.000000
    9  O  1  Z    0.000000   0.000000  -0.000000   0.000000   0.835303
   10  O  1 XX    0.000000   0.000000  -0.000000   0.000000   0.541201
   11  O  1 YY    0.000000   0.000000  -0.000000   0.000000  -0.490539
   12  O  1 ZZ    0.000000   0.000000  -0.000000   0.000000   1.427848
   13  O  1 XY    0.000000   0.000000  -0.000000   1.210263   0.000000
   14  O  1 XZ    0.000000   0.896266  -0.000000   0.000000   0.000000
   15  O  1 YZ    0.385645   0.000000   1.366736   0.000000   0.000000
   16  H  2  S    3.293580   0.000000   3.090683   0.000000  -0.567831
   17  H  2  S   -0.218017   0.000000  -0.299565   0.000000  -0.120002
   18  H  2  X    0.000000  -1.279174  -0.000000   1.341967   0.000000
   19  H  2  Y    0.545066   0.000000   0.894433   0.000000  -0.990635
   20  H  2  Z   -1.274805   0.000000   0.544415   0.000000  -0.526828
   21  H  3  S   -3.293580   0.000000  -3.090683   0.000000  -0.567831
   22  H  3  S    0.218017   0.000000   0.299565   0.000000  -0.120002
   23  H  3  X    0.000000  -1.279174  -0.000000  -1.341967   0.000000
   24  H  3  Y    0.545066   0.000000   0.894433   0.000000   0.990635
   25  H  3  Z    1.274805   0.000000  -0.544415   0.000000  -0.526828

                     21         22         23         24         25
                    0.0003     0.0003     0.0001     0.0000     0.0000
                     A1         B2         A1         B2         A1  
    1  O  1  S   -0.222918   0.000000   2.952051   0.000000  -0.598539
    2  O  1  S   -1.216771   0.000000   4.614960   0.000000  -0.659493
    3  O  1  S   -0.473789   0.000000   2.987622   0.000000   3.710081
    4  O  1  X   -0.000000   0.000000  -0.000000   0.000000   0.000000
    5  O  1  Y   -0.000000   0.588217  -0.000000   0.570428   0.000000
    6  O  1  Z    0.074287   0.000000   1.094024   0.000000  -0.082122
    7  O  1  X   -0.000000   0.000000  -0.000000   0.000000   0.000000
    8  O  1  Y   -0.000000  -1.643718  -0.000000   2.220487   0.000000
    9  O  1  Z    0.075375   0.000000   0.184562   0.000000   0.335137
   10  O  1 XX    1.060602   0.000000   0.548512   0.000000  -0.771352
   11  O  1 YY    1.743634   0.000000   1.363549   0.000000  -0.773918
   12  O  1 ZZ    1.000712   0.000000   0.022427   0.000000  -0.709069
   13  O  1 XY   -0.000000   0.000000  -0.000000   0.000000   0.000000
   14  O  1 XZ   -0.000000   0.000000  -0.000000   0.000000   0.000000
   15  O  1 YZ   -0.000000  -0.179347  -0.000000   0.402121   0.000000
   16  H  2  S   -0.727910   1.386542  -4.067045   2.164766   0.190374
   17  H  2  S   -0.083517  -1.102857  -0.153323   3.370753  -1.234339
   18  H  2  X   -0.000000   0.000000  -0.000000   0.000000   0.000000
   19  H  2  Y    0.275530   1.977854  -1.343127   0.712650   0.049578
   20  H  2  Z    0.193353  -0.068211   1.957492  -0.520605  -0.106706
   21  H  3  S   -0.727910  -1.386542  -4.067045  -2.164766   0.190374
   22  H  3  S   -0.083517   1.102857  -0.153323  -3.370753  -1.234339
   23  H  3  X   -0.000000   0.000000  -0.000000   0.000000   0.000000
   24  H  3  Y   -0.275530   1.977854   1.343127   0.712650  -0.049578
   25  H  3  Z    0.193353   0.068211   1.957492   0.520605  -0.106706
 ...... END OF DENSITY MATRIX CALCULATION ...... 
 STEP CPU TIME =     0.01 TOTAL CPU TIME =        0.9 (    0.0 MIN)
 TOTAL WALL CLOCK TIME=        1.6 SECONDS, CPU UTILIZATION IS  53.99%

     --------------------------------------------------------
     GUGA  CI PROPERTIES...FOR THE WAVEFUNCTION OF STATE    1
               USING THE EXPECTATION VALUE DENSITY
     --------------------------------------------------------

          -----------------
          ENERGY COMPONENTS
          -----------------

         WAVEFUNCTION NORMALIZATION =       1.0000000000

                ONE ELECTRON ENERGY =    -134.6550513796
                TWO ELECTRON ENERGY =      42.5556427248
           NUCLEAR REPULSION ENERGY =      17.3650894946
                                      ------------------
                       TOTAL ENERGY =     -74.7343191602

 ELECTRON-ELECTRON POTENTIAL ENERGY =      42.5556427248
  NUCLEUS-ELECTRON POTENTIAL ENERGY =    -215.0235736239
   NUCLEUS-NUCLEUS POTENTIAL ENERGY =      17.3650894946
                                      ------------------
             TOTAL POTENTIAL ENERGY =    -155.1028414045
               TOTAL KINETIC ENERGY =      80.3685222443
                 VIRIAL RATIO (V/T) =       1.9298954003
 MEMORY ASSIGNEMENT
 I10, I20, I21, I30, I31, I40, I41, I60 =
****************************************************************
 LAST = ********

          ---------------------------------------
          MULLIKEN AND LOWDIN POPULATION ANALYSES
          ---------------------------------------
 MEMORY ASSIGNMENT
 I10, I30, I40, I50, I60, I70, I41, I51, I61, I71 =
********************************************************************************
 LAST = ********

          ----- MULLIKEN ATOMIC OVERLAP POPULATIONS -----
          (OFF-DIAGONAL ELEMENTS NEED TO BE MULTIPLIED BY 2)

                      1          2          3          4          5

    1  O  1  S    2.025610
    2  O  1  S    0.003662   0.387149
    3  O  1  S    0.004147   0.063707   0.506569
    4  O  1  X    0.000000   0.000000   0.000000   0.844696
    5  O  1  Y    0.000000   0.000000   0.000000   0.000000   0.765282
    6  O  1  Z   -0.000000  -0.000000  -0.000000   0.000000   0.000000
    7  O  1  X    0.000000   0.000000   0.000000   0.283212   0.000000
    8  O  1  Y    0.000000   0.000000   0.000000   0.000000   0.036360
    9  O  1  Z    0.000000  -0.000000  -0.000000   0.000000   0.000000
   10  O  1 XX   -0.000419  -0.012115   0.017929   0.000000   0.000000
   11  O  1 YY   -0.000354   0.001279   0.015052   0.000000   0.000000
   12  O  1 ZZ   -0.000434  -0.004746  -0.023453   0.000000   0.000000
   13  O  1 XY    0.000000   0.000000   0.000000   0.000000   0.000000
   14  O  1 XZ    0.000000   0.000000   0.000000   0.000000   0.000000
   15  O  1 YZ    0.000000   0.000000   0.000000   0.000000   0.000000
   16  H  2  S   -0.010087   0.146935  -0.202742  -0.000000   0.167333
   17  H  2  S   -0.000276   0.011055   0.017274  -0.000000   0.005926
   18  H  2  X    0.000000   0.000000   0.000000   0.021659  -0.000000
   19  H  2  Y   -0.001296   0.007093  -0.005163  -0.000000  -0.011053
   20  H  2  Z   -0.000540   0.007294   0.000627   0.000000   0.006826
   21  H  3  S   -0.010087   0.146935  -0.202742   0.000000   0.167333
   22  H  3  S   -0.000276   0.011055   0.017274   0.000000   0.005926
   23  H  3  X    0.000000   0.000000   0.000000   0.021659   0.000000
   24  H  3  Y   -0.001296   0.007093  -0.005163   0.000000  -0.011053
   25  H  3  Z   -0.000540   0.007294   0.000627   0.000000   0.006826

                      6          7          8          9         10

    6  O  1  Z    0.815117
    7  O  1  X    0.000000   0.408243
    8  O  1  Y    0.000000   0.000000   0.012047
    9  O  1  Z    0.161777   0.000000   0.000000   0.215486
   10  O  1 XX   -0.000000   0.000000   0.000000  -0.000000   0.007280
   11  O  1 YY   -0.000000   0.000000   0.000000  -0.000000   0.000178
   12  O  1 ZZ    0.000000   0.000000   0.000000   0.000000  -0.000986
   13  O  1 XY    0.000000   0.000000   0.000000   0.000000   0.000000
   14  O  1 XZ    0.000000   0.000000   0.000000   0.000000   0.000000
   15  O  1 YZ    0.000000   0.000000   0.000000   0.000000   0.000000
   16  H  2  S    0.092479  -0.000000   0.018899   0.010004  -0.014218
   17  H  2  S   -0.000975  -0.000000   0.001843  -0.003499  -0.000092
   18  H  2  X    0.000000   0.018076  -0.000000   0.000000   0.000000
   19  H  2  Y    0.005841  -0.000000  -0.001734   0.000305  -0.000787
   20  H  2  Z   -0.000274   0.000000   0.000305   0.005602  -0.000353
   21  H  3  S    0.092479   0.000000   0.018899   0.010004  -0.014218
   22  H  3  S   -0.000975   0.000000   0.001843  -0.003499  -0.000092
   23  H  3  X    0.000000   0.018076   0.000000   0.000000   0.000000
   24  H  3  Y    0.005841   0.000000  -0.001734   0.000305  -0.000787
   25  H  3  Z   -0.000274   0.000000   0.000305   0.005602  -0.000353

                     11         12         13         14         15

   11  O  1 YY    0.006221
   12  O  1 ZZ   -0.000761   0.007979
   13  O  1 XY    0.000000   0.000000   0.003575
   14  O  1 XZ    0.000000   0.000000   0.000000   0.006172
   15  O  1 YZ    0.000000   0.000000   0.000000   0.000000   0.011297
   16  H  2  S   -0.006197   0.010603   0.000000  -0.000000   0.009335
   17  H  2  S    0.000653  -0.000586   0.000000  -0.000000   0.000080
   18  H  2  X    0.000000   0.000000   0.000138   0.000655  -0.000000
   19  H  2  Y   -0.000042   0.000437  -0.000000  -0.000000  -0.000608
   20  H  2  Z   -0.000067   0.000008  -0.000000  -0.000000  -0.000713
   21  H  3  S   -0.006197   0.010603   0.000000   0.000000   0.009335
   22  H  3  S    0.000653  -0.000586   0.000000   0.000000   0.000080
   23  H  3  X    0.000000   0.000000   0.000138   0.000655   0.000000
   24  H  3  Y   -0.000042   0.000437   0.000000   0.000000  -0.000608
   25  H  3  Z   -0.000067   0.000008   0.000000   0.000000  -0.000713

                     16         17         18         19         20

   16  H  2  S    0.772301
   17  H  2  S    0.056020   0.017983
   18  H  2  X    0.000000   0.000000   0.004017
   19  H  2  Y   -0.000000   0.000000   0.000000   0.006598
   20  H  2  Z   -0.000000  -0.000000   0.000000  -0.000000   0.004545
   21  H  3  S   -0.000687  -0.034349   0.000000  -0.001966   0.000000
   22  H  3  S   -0.034349  -0.010587   0.000000  -0.000794   0.000000
   23  H  3  X   -0.000000  -0.000000   0.000957  -0.000000   0.000000
   24  H  3  Y   -0.001966  -0.000794  -0.000000  -0.000333  -0.000000
   25  H  3  Z    0.000000   0.000000   0.000000   0.000000   0.000024

                     21         22         23         24         25

   21  H  3  S    0.772301
   22  H  3  S    0.056020   0.017983
   23  H  3  X    0.000000   0.000000   0.004017
   24  H  3  Y   -0.000000  -0.000000   0.000000   0.006598
   25  H  3  Z   -0.000000  -0.000000   0.000000   0.000000   0.004545

               ----- POPULATIONS IN EACH AO -----
                             MULLIKEN      LOWDIN
              1  O  1  S      2.00781     1.73533
              2  O  1  S      0.78369     0.58488
              3  O  1  S      0.20394     0.32170
              4  O  1  X      1.17123     0.93639
              5  O  1  Y      1.13971     1.08894
              6  O  1  Z      1.17104     1.06652
              7  O  1  X      0.72761     0.56890
              8  O  1  Y      0.08703     0.27879
              9  O  1  Z      0.40209     0.46742
             10  O  1 XX     -0.01903     0.10905
             11  O  1 YY      0.01031     0.18852
             12  O  1 ZZ     -0.00148     0.15342
             13  O  1 XY      0.00385     0.00370
             14  O  1 XZ      0.00748     0.00398
             15  O  1 YZ      0.02748     0.04541
             16  H  2  S      1.01366     0.51764
             17  H  2  S      0.05968     0.10756
             18  H  2  X      0.04550     0.24410
             19  H  2  Y     -0.00350     0.16778
             20  H  2  Z      0.02328     0.18644
             21  H  3  S      1.01366     0.51764
             22  H  3  S      0.05968     0.10756
             23  H  3  X      0.04550     0.24410
             24  H  3  Y     -0.00350     0.16778
             25  H  3  Z      0.02328     0.18644

          ----- MULLIKEN ATOMIC OVERLAP POPULATIONS -----
          (OFF-DIAGONAL ELEMENTS NEED TO BE MULTIPLIED BY 2)

             1           2           3

    1    7.1107900
    2    0.3059830   0.9174842
    3    0.3059830  -0.0848452   0.9174842

          TOTAL MULLIKEN AND LOWDIN ATOMIC POPULATIONS
       ATOM         MULL.POP.                    LOW.POP.

          TOTAL MULLIKEN AND LOWDIN ATOMIC POPULATIONS
       ATOM         MULL.POP.    CHARGE          LOW.POP.     CHARGE
    1 OXYGEN        7.722756                     7.552972
    1 OXYGEN        7.722756    0.277244         7.552972    0.447028
    2 HYDROGEN      1.138622                     1.223514
    2 HYDROGEN      1.138622   -0.138622         1.223514   -0.223514
    3 HYDROGEN      1.138622                     1.223514
    3 HYDROGEN      1.138622   -0.138622         1.223514   -0.223514

          ---------------------
          ELECTROSTATIC MOMENTS
          ---------------------

 POINT   1           X           Y           Z (BOHR)    CHARGE
                -0.000000    0.000000    0.065642       -0.00 (A.U.)
         DX          DY          DZ         /D/  (DEBYE)
     0.000000    0.000000    1.638167    1.638167
 ...... END OF PROPERTY EVALUATION ......
 STEP CPU TIME =     0.00 TOTAL CPU TIME =        0.9 (    0.0 MIN)
 TOTAL WALL CLOCK TIME=        1.6 SECONDS, CPU UTILIZATION IS  53.66%
              1402784  WORDS OF DYNAMIC MEMORY USED
 EXECUTION OF GAMESS TERMINATED NORMALLY Wed May 15 20:46:27 2013
 DDI: 263624 bytes (0.3 MB / 0 MWords) used by master data server.

 ----------------------------------------
 CPU timing information for all processes
 ========================================
 0: 0.492 + 0.524 = 1.16
 ----------------------------------------
 ddikick.x: exited gracefully.
unset echo
----- accounting info -----
Files used on the master node doreen were:
-rw-rw-r-- 1 lmentel lmentel   23143 maj 15 20:46 /home/lmentel/scratch/h2o_cc-pvdz.dat
-rw-rw-r-- 1 lmentel lmentel    1856 maj 15 20:46 /home/lmentel/scratch/h2o_cc-pvdz.F05
-rw-rw-r-- 1 lmentel lmentel  180016 maj 15 20:46 /home/lmentel/scratch/h2o_cc-pvdz.F08
-rw-rw-r-- 1 lmentel lmentel  182624 maj 15 20:46 /home/lmentel/scratch/h2o_cc-pvdz.F09
-rw-rw-r-- 1 lmentel lmentel 1210640 maj 15 20:46 /home/lmentel/scratch/h2o_cc-pvdz.F10
-rw-rw-r-- 1 lmentel lmentel  310776 maj 15 20:46 /home/lmentel/scratch/h2o_cc-pvdz.F11
-rw-rw-r-- 1 lmentel lmentel   11936 maj 15 20:46 /home/lmentel/scratch/h2o_cc-pvdz.F12
-rw-rw-r-- 1 lmentel lmentel  400008 maj 15 20:46 /home/lmentel/scratch/h2o_cc-pvdz.F14
-rw-rw-r-- 1 lmentel lmentel  171968 maj 15 20:46 /home/lmentel/scratch/h2o_cc-pvdz.F15
-rw-rw-r-- 1 lmentel lmentel 2600408 maj 15 20:46 /home/lmentel/scratch/h2o_cc-pvdz.F16
pwd
cp /home/lmentel/scratch/h2o_cc-pvdz.F08 /home/lmentel/work/mercurial_repo/Vconstr/test/h2o/h2o_cc-pvdz.F08
pwd
cp /home/lmentel/scratch/h2o_cc-pvdz.F09 /home/lmentel/work/mercurial_repo/Vconstr/test/h2o/h2o_cc-pvdz.F09
pwd
cp /home/lmentel/scratch/h2o_cc-pvdz.F10 /home/lmentel/work/mercurial_repo/Vconstr/test/h2o/h2o_cc-pvdz.F10
pwd
cp /home/lmentel/scratch/basis.info /home/lmentel/work/mercurial_repo/Vconstr/test/h2o/h2o_cc-pvdz.basinfo
unset echo
ls: No match.
ls: No match.
ls: No match.
śro, 15 maj 2013, 20:46:30 KST
0.0u 0.0s 0:05.21 0.5% 0+0k 1032+3112io 12pf+0w
