----- GAMESS execution script 'rungms' -----
This job is running on host doreen
under operating system Linux at pon, 20 maj 2013, 11:39:25 KST
Available scratch disk space (Kbyte units) at beginning of the job is
System plików      1K-bl     użyte dostępne %uż. zamont. na
/dev/sda5      242137496 194024096 35813524  85% /home
GAMESS temporary binary files will be written to /home/lmentel/scratch
GAMESS supplementary output files will be written to /home/lmentel/scratch
Copying input file h2_atmol.inp to your run's scratch directory...
cp h2_atmol.inp /home/lmentel/scratch/h2_atmol.F05
unset echo
/home/lmentel/Programs/gamess-may2012/ddikick.x /home/lmentel/Programs/gamess-may2012/gamess.01.x h2_atmol -ddi 1 1 doreen -scr /home/lmentel/scratch

 Distributed Data Interface kickoff program.
 Initiating 1 compute processes on 1 nodes to run the following command:
 /home/lmentel/Programs/gamess-may2012/gamess.01.x h2_atmol 

          ******************************************************
          *         GAMESS VERSION =  1 MAY 2012 (R1)          *
          *             FROM IOWA STATE UNIVERSITY             *
          * M.W.SCHMIDT, K.K.BALDRIDGE, J.A.BOATZ, S.T.ELBERT, *
          *   M.S.GORDON, J.H.JENSEN, S.KOSEKI, N.MATSUNAGA,   *
          *          K.A.NGUYEN, S.J.SU, T.L.WINDUS,           *
          *       TOGETHER WITH M.DUPUIS, J.A.MONTGOMERY       *
          *         J.COMPUT.CHEM.  14, 1347-1363(1993)        *
          **************** 64 BIT LINUX VERSION ****************

  SINCE 1993, STUDENTS AND POSTDOCS WORKING AT IOWA STATE UNIVERSITY
  AND ALSO IN THEIR VARIOUS JOBS AFTER LEAVING ISU HAVE MADE IMPORTANT
  CONTRIBUTIONS TO THE CODE:
     IVANA ADAMOVIC, CHRISTINE AIKENS, YURI ALEXEEV, POOJA ARORA,
     ANDREY ASADCHEV, ROB BELL, PRADIPTA BANDYOPADHYAY, JONATHAN BENTZ,
     BRETT BODE, GALINA CHABAN, WEI CHEN, CHEOL HO CHOI, PAUL DAY,
     ALBERT DEFUSCO, TIM DUDLEY, DMITRI FEDOROV, GRAHAM FLETCHER,
     MARK FREITAG, KURT GLAESEMANN, DAN KEMP, GRANT MERRILL,
     NORIYUKI MINEZAWA, JONATHAN MULLIN, TAKESHI NAGATA,
     SEAN NEDD, HEATHER NETZLOFF, BOSILJKA NJEGIC, RYAN OLSON, MIKE PAK,
     JIM SHOEMAKER, LYUDMILA SLIPCHENKO, SAROM SOK, JIE SONG,
     TETSUYA TAKETSUGU, SIMON WEBB, SOOHAENG YOO, FEDERICO ZAHARIEV

  ADDITIONAL CODE HAS BEEN PROVIDED BY COLLABORATORS IN OTHER GROUPS:
     IOWA STATE UNIVERSITY:
          JOE IVANIC, LAIMUTIS BYTAUTAS, KLAUS RUEDENBERG
     UNIVERSITY OF TOKYO: KIMIHIKO HIRAO, TAKAHITO NAKAJIMA,
          TAKAO TSUNEDA, MUNEAKI KAMIYA, SUSUMU YANAGISAWA,
          KIYOSHI YAGI, MAHITO CHIBA, SEIKEN TOKURA, NAOAKI KAWAKAMI
     UNIVERSITY OF AARHUS: FRANK JENSEN
     UNIVERSITY OF IOWA: VISVALDAS KAIRYS, HUI LI
     NATIONAL INST. OF STANDARDS AND TECHNOLOGY: WALT STEVENS, DAVID GARMER
     UNIVERSITY OF PISA: BENEDETTA MENNUCCI, JACOPO TOMASI
     UNIVERSITY OF MEMPHIS: HENRY KURTZ, PRAKASHAN KORAMBATH
     UNIVERSITY OF ALBERTA: TOBY ZENG, MARIUSZ KLOBUKOWSKI
     UNIVERSITY OF NEW ENGLAND: MARK SPACKMAN
     MIE UNIVERSITY: HIROAKI UMEDA
     MICHIGAN STATE UNIVERSITY:
          KAROL KOWALSKI, MARTA WLOCH, JEFFREY GOUR, JESSE LUTZ, PIOTR PIECUCH
     UNIVERSITY OF SILESIA: MONIKA MUSIAL, STANISLAW KUCHARSKI
     FACULTES UNIVERSITAIRES NOTRE-DAME DE LA PAIX:
          OLIVIER QUINET, BENOIT CHAMPAGNE
     UNIVERSITY OF CALIFORNIA - SANTA BARBARA: BERNARD KIRTMAN
     INSTITUTE FOR MOLECULAR SCIENCE:
          KAZUYA ISHIMURA, MICHIO KATOUDA, AND SHIGERU NAGASE
     UNIVERSITY OF NOTRE DAME: DAN CHIPMAN
     KYUSHU UNIVERSITY:
          HARUYUKI NAKANO,
          FENG LONG GU, JACEK KORCHOWIEC, MARCIN MAKOWSKI, AND YURIKO AOKI,
          HIROTOSHI MORI AND EISAKU MIYOSHI
     PENNSYLVANIA STATE UNIVERSITY:
          TZVETELIN IORDANOV, CHET SWALINA, JONATHAN SKONE,
          SHARON HAMMES-SCHIFFER
     WASEDA UNIVERSITY:
          MASATO KOBAYASHI, TOMOKO AKAMA, TSUGUKI TOUMA,
          TAKESHI YOSHIKAWA, YASUHIRO IKABATA, HIROMI NAKAI
     UNIVERSITY OF NEBRASKA:
          PEIFENG SU, DEJUN SI, NANDUN THELLAMUREGE, YALI WANG, HUI LI
     UNIVERSITY OF ZURICH:
          ROBERTO PEVERATI, KIM BALDRIDGE
     N. COPERNICUS UNIVERSITY AND JACKSON STATE UNIVERSITY:
          MARIA BARYSZ

 EXECUTION OF GAMESS BEGUN Mon May 20 11:39:25 2013

            ECHO OF THE FIRST FEW INPUT CARDS -
 INPUT CARD> $CONTRL                                                                        
 INPUT CARD>    SCFTYP=RHF                                                                  
 INPUT CARD>    RUNTYP=ENERGY                                                               
 INPUT CARD>    cityp=guga                                                                  
 INPUT CARD>    UNITS=BOHR                                                                  
 INPUT CARD>    ISPHER=-1                                                                   
 INPUT CARD>    nprint=3                                                                    
 INPUT CARD> $END                                                                           
 INPUT CARD> $SYSTEM                                                                        
 INPUT CARD>    TIMLIM=1000000                                                              
 INPUT CARD>    mwords=100                                                                  
 INPUT CARD> $END                                                                           
 INPUT CARD> $SCF dirscf=.false. $END                                                       
 INPUT CARD> $CIDRT                                                                         
 INPUT CARD>    iexcit=2                                                                    
 INPUT CARD>    ndoc=1                                                                      
 INPUT CARD>    nval=25                                                                     
 INPUT CARD>    group=d2h                                                                   
 INPUT CARD> $END                                                                           
 INPUT CARD> $CIINP                                                                         
 INPUT CARD>    npflg(2)=2                                                                  
 INPUT CARD> $END                                                                           
 INPUT CARD> $GUGDM                                                                         
 INPUT CARD>    nflgdm=1                                                                    
 INPUT CARD> $END                                                                           
 INPUT CARD> $DATA                                                                          
 INPUT CARD>Hydrogen molecule at equlibium in cc-pVDZ basis                                 
 INPUT CARD>dnh      2                                                                      
 INPUT CARD>                                                                                
 INPUT CARD>H     1.0      0.000000    0.000000   0.7005593                                 
 INPUT CARD>S   5                                                                           
 INPUT CARD>  1       1776.77556000     0.00004400                                          
 INPUT CARD>  2        254.01771200     0.00037200                                          
 INPUT CARD>  3         54.69803900     0.00209400                                          
 INPUT CARD>  4         15.01834400     0.00886300                                          
 INPUT CARD>  5          4.91507800     0.03054000                                          
 INPUT CARD>S   1                                                                           
 INPUT CARD>  1          1.79492400     1.00000000                                          
 INPUT CARD>S   1                                                                           
 INPUT CARD>  1          0.71071600     1.00000000                                          
 INPUT CARD>S   1                                                                           
 INPUT CARD>  1          0.30480200     1.00000000                                          
 INPUT CARD>P   1                                                                           
 INPUT CARD>  1          1.36000000     1.00000000                                          
 INPUT CARD>P   1                                                                           
 INPUT CARD>  1          0.53900000     1.00000000                                          
 INPUT CARD>P   1                                                                           
 INPUT CARD>  1          0.21400000     1.00000000                                          
 INPUT CARD>                                                                                
 INPUT CARD> $END                                                                           
  100000000 WORDS OF MEMORY AVAILABLE


     RUN TITLE
     ---------
 Hydrogen molecule at equlibium in cc-pVDZ basis                                 

 THE POINT GROUP OF THE MOLECULE IS DNH     
 THE ORDER OF THE PRINCIPAL AXIS IS     2
 *** WARNING! ATOM   1 SHELL    1 TYPE S HAS NORMALIZATION  25.52015154

 ATOM      ATOMIC                      COORDINATES (BOHR)
           CHARGE         X                   Y                   Z
 H           1.0     0.0000000000        0.0000000000       -0.7005593000
 H           1.0     0.0000000000        0.0000000000        0.7005593000

          INTERNUCLEAR DISTANCES (ANGS.)
          ------------------------------

                1 H          2 H     

   1 H       0.0000000    0.7414401 *
   2 H       0.7414401 *  0.0000000  

  * ... LESS THAN  3.000


     ATOMIC BASIS SET
     ----------------
 THE CONTRACTED PRIMITIVE FUNCTIONS HAVE BEEN UNNORMALIZED
 THE CONTRACTED BASIS FUNCTIONS ARE NOW NORMALIZED TO UNITY

  SHELL TYPE  PRIMITIVE        EXPONENT          CONTRACTION COEFFICIENT(S)

 H         

      8   S       1          1776.7755600    0.001122886668
      8   S       2           254.0177120    0.009493496371
      8   S       3            54.6980390    0.053439197314
      8   S       4            15.0183440    0.226185103055
      8   S       5             4.9150780    0.779385427879

      9   S       6             1.7949240    1.000000000000

     10   S       7             0.7107160    1.000000000000

     11   S       8             0.3048020    1.000000000000

     12   P       9             1.3600000    1.000000000000

     13   P      10             0.5390000    1.000000000000

     14   P      11             0.2140000    1.000000000000

 TOTAL NUMBER OF BASIS SET SHELLS             =   14
 NUMBER OF CARTESIAN GAUSSIAN BASIS FUNCTIONS =   26
 NUMBER OF ELECTRONS                          =    2
 CHARGE OF MOLECULE                           =    0
 SPIN MULTIPLICITY                            =    1
 NUMBER OF OCCUPIED ORBITALS (ALPHA)          =    1
 NUMBER OF OCCUPIED ORBITALS (BETA )          =    1
 TOTAL NUMBER OF ATOMS                        =    2
 THE NUCLEAR REPULSION ENERGY IS        0.7137154556

 THIS MOLECULE IS RECOGNIZED AS BEING LINEAR,
 ORBITAL LZ DEGENERACY TOLERANCE ETOLLZ= 1.00E-06

     $CONTRL OPTIONS
     ---------------
 SCFTYP=RHF          RUNTYP=ENERGY       EXETYP=RUN     
 MPLEVL=       0     CITYP =GUGA         CCTYP =NONE         VBTYP =NONE    
 DFTTYP=NONE         TDDFT =NONE    
 MULT  =       1     ICHARG=       0     NZVAR =       0     COORD =UNIQUE  
 PP    =NONE         RELWFN=NONE         LOCAL =NONE         NUMGRD=       F
 ISPHER=      -1     NOSYM =       0     MAXIT =      30     UNITS =BOHR    
 PLTORB=       F     MOLPLT=       F     AIMPAC=       F     FRIEND=        
 NPRINT=       3     IREST =       0     GEOM  =INPUT   
 NORMF =       0     NORMP =       0     ITOL  =      20     ICUT  =       9
 INTTYP=BEST         GRDTYP=BEST         QMTTOL= 1.0E-06

     $SYSTEM OPTIONS
     ---------------
  REPLICATED MEMORY=   100000000 WORDS (ON EVERY NODE).
 DISTRIBUTED MEMDDI=           0 MILLION WORDS IN AGGREGATE,
 MEMDDI DISTRIBUTED OVER   1 PROCESSORS IS           0 WORDS/PROCESSOR.
 TOTAL MEMORY REQUESTED ON EACH PROCESSOR=   100000000 WORDS.
 TIMLIM=     1000000.00 MINUTES, OR     694.4 DAYS.
 PARALL= F  BALTYP=  DLB     KDIAG=    0  COREFL= F
 MXSEQ2=     300 MXSEQ3=     150

          ----------------
          PROPERTIES INPUT
          ----------------

     MOMENTS            FIELD           POTENTIAL          DENSITY
 IEMOM =       1   IEFLD =       0   IEPOT =       0   IEDEN =       0
 WHERE =COMASS     WHERE =NUCLEI     WHERE =NUCLEI     WHERE =NUCLEI  
 OUTPUT=BOTH       OUTPUT=BOTH       OUTPUT=BOTH       OUTPUT=BOTH    
 IEMINT=       0   IEFINT=       0                     IEDINT=       0
                                                       MORB  =       0
          EXTRAPOLATION IN EFFECT
          SOSCF IN EFFECT
 ORBITAL PRINTING OPTION: NPREO=     1    26     2     1

     -------------------------------
     INTEGRAL TRANSFORMATION OPTIONS
     -------------------------------
     NWORD  =            0
     CUTOFF = 1.0E-09     MPTRAN =       0
     DIRTRF =       F     AOINTS =DUP     

          ----------------------
          INTEGRAL INPUT OPTIONS
          ----------------------
 NOPK  =       1 NORDER=       0 SCHWRZ=       F

     ------------------------------------------
     THE POINT GROUP IS DNH, NAXIS= 2, ORDER= 8
     ------------------------------------------

     DIMENSIONS OF THE SYMMETRY SUBSPACES ARE
 AG  =    7     AU  =    0     B3U =    3     B3G =    3     B1G =    0
 B1U =    7     B2U =    3     B2G =    3

 ..... DONE SETTING UP THE RUN .....
 STEP CPU TIME =     0.00 TOTAL CPU TIME =        0.0 (    0.0 MIN)
 TOTAL WALL CLOCK TIME=        0.0 SECONDS, CPU UTILIZATION IS   0.00%

          ********************
          1 ELECTRON INTEGRALS
          ********************
 OVERLAP MATRIX

                      1          2          3          4          5

    1  H  1  S    1.000000
    2  H  1  S    0.770776   1.000000
    3  H  1  S    0.488726   0.856000   1.000000
    4  H  1  S    0.286917   0.591356   0.877605   1.000000
    5  H  1  X    0.000000   0.000000   0.000000   0.000000   1.000000
    6  H  1  Y    0.000000   0.000000   0.000000   0.000000   0.000000
    7  H  1  Z   -0.000000   0.000000   0.000000   0.000000   0.000000
    8  H  1  X    0.000000   0.000000   0.000000   0.000000   0.772098
    9  H  1  Y    0.000000   0.000000   0.000000   0.000000   0.000000
   10  H  1  Z   -0.000000  -0.000000   0.000000   0.000000   0.000000
   11  H  1  X    0.000000   0.000000   0.000000   0.000000   0.389049
   12  H  1  Y    0.000000   0.000000   0.000000   0.000000   0.000000
   13  H  1  Z   -0.000000   0.000000   0.000000  -0.000000   0.000000
   14  H  2  S    0.005080   0.054243   0.142257   0.162839   0.000000
   15  H  2  S    0.054243   0.171729   0.315069   0.354572   0.000000
   16  H  2  S    0.142257   0.315069   0.497771   0.577337   0.000000
   17  H  2  S    0.162839   0.354572   0.577337   0.741423   0.000000
   18  H  2  X    0.000000   0.000000   0.000000   0.000000   0.263176
   19  H  2  Y    0.000000   0.000000   0.000000   0.000000   0.000000
   20  H  2  Z   -0.210649  -0.401242  -0.415118  -0.249637   0.000000
   21  H  2  X    0.000000   0.000000   0.000000   0.000000   0.361881
   22  H  2  Y    0.000000   0.000000   0.000000   0.000000   0.000000
   23  H  2  Z   -0.296068  -0.542609  -0.631880  -0.477495   0.000000
   24  H  2  X    0.000000   0.000000   0.000000   0.000000   0.270619
   25  H  2  Y    0.000000   0.000000   0.000000   0.000000   0.000000
   26  H  2  Z   -0.187636  -0.385676  -0.558838  -0.581302   0.000000

                      6          7          8          9         10

    6  H  1  Y    1.000000
    7  H  1  Z    0.000000   1.000000
    8  H  1  X    0.000000   0.000000   1.000000
    9  H  1  Y    0.772098   0.000000   0.000000   1.000000
   10  H  1  Z    0.000000   0.772098   0.000000   0.000000   1.000000
   11  H  1  X    0.000000   0.000000   0.772842   0.000000   0.000000
   12  H  1  Y    0.389049   0.000000   0.000000   0.772842   0.000000
   13  H  1  Z    0.000000   0.389049   0.000000   0.000000   0.772842
   14  H  2  S    0.000000   0.210649   0.000000   0.000000   0.296068
   15  H  2  S    0.000000   0.401242   0.000000   0.000000   0.542609
   16  H  2  S    0.000000   0.415118   0.000000   0.000000   0.631880
   17  H  2  S    0.000000   0.249637   0.000000   0.000000   0.477495
   18  H  2  X    0.000000   0.000000   0.361881   0.000000   0.000000
   19  H  2  Y    0.263176   0.000000   0.000000   0.361881   0.000000
   20  H  2  Z    0.000000  -0.439468   0.000000   0.000000  -0.186583
   21  H  2  X    0.000000   0.000000   0.589156   0.000000   0.000000
   22  H  2  Y    0.361881   0.000000   0.000000   0.589156   0.000000
   23  H  2  Z    0.000000  -0.186583   0.000000   0.000000  -0.034247
   24  H  2  X    0.000000   0.000000   0.572125   0.000000   0.000000
   25  H  2  Y    0.270619   0.000000   0.000000   0.572125   0.000000
   26  H  2  Z    0.000000   0.074154   0.000000   0.000000   0.228030

                     11         12         13         14         15

   11  H  1  X    1.000000
   12  H  1  Y    0.000000   1.000000
   13  H  1  Z    0.000000   0.000000   1.000000
   14  H  2  S    0.000000   0.000000   0.187636   1.000000
   15  H  2  S    0.000000   0.000000   0.385676   0.770776   1.000000
   16  H  2  S    0.000000   0.000000   0.558838   0.488726   0.856000
   17  H  2  S    0.000000   0.000000   0.581302   0.286917   0.591356
   18  H  2  X    0.270619   0.000000   0.000000   0.000000   0.000000
   19  H  2  Y    0.000000   0.270619   0.000000   0.000000   0.000000
   20  H  2  Z    0.000000   0.000000   0.074154   0.000000   0.000000
   21  H  2  X    0.572125   0.000000   0.000000   0.000000   0.000000
   22  H  2  Y    0.000000   0.572125   0.000000   0.000000   0.000000
   23  H  2  Z    0.000000   0.000000   0.228030   0.000000   0.000000
   24  H  2  X    0.810539   0.000000   0.000000   0.000000   0.000000
   25  H  2  Y    0.000000   0.810539   0.000000   0.000000   0.000000
   26  H  2  Z    0.000000   0.000000   0.470023   0.000000   0.000000

                     16         17         18         19         20

   16  H  2  S    1.000000
   17  H  2  S    0.877605   1.000000
   18  H  2  X    0.000000   0.000000   1.000000
   19  H  2  Y    0.000000   0.000000   0.000000   1.000000
   20  H  2  Z    0.000000   0.000000   0.000000   0.000000   1.000000
   21  H  2  X    0.000000   0.000000   0.772098   0.000000   0.000000
   22  H  2  Y    0.000000   0.000000   0.000000   0.772098   0.000000
   23  H  2  Z   -0.000000   0.000000   0.000000   0.000000   0.772098
   24  H  2  X    0.000000   0.000000   0.389049   0.000000   0.000000
   25  H  2  Y    0.000000   0.000000   0.000000   0.389049   0.000000
   26  H  2  Z   -0.000000   0.000000   0.000000   0.000000   0.389049

                     21         22         23         24         25

   21  H  2  X    1.000000
   22  H  2  Y    0.000000   1.000000
   23  H  2  Z    0.000000   0.000000   1.000000
   24  H  2  X    0.772842   0.000000   0.000000   1.000000
   25  H  2  Y    0.000000   0.772842   0.000000   0.000000   1.000000
   26  H  2  Z    0.000000   0.000000   0.772842   0.000000   0.000000

                     26

   26  H  2  Z    1.000000
 BARE NUCLEUS HAMILTONIAN INTEGRALS (H=T+V)

                      1          2          3          4          5

    1  H  1  S    5.142034
    2  H  1  S    0.087867  -0.159133
    3  H  1  S   -0.881461  -0.831397  -0.979979
    4  H  1  S   -0.778045  -0.924998  -1.033943  -1.050557
    5  H  1  X    0.000000   0.000000   0.000000   0.000000   1.512333
    6  H  1  Y    0.000000   0.000000   0.000000   0.000000   0.000000
    7  H  1  Z   -0.058652  -0.184457  -0.253934  -0.221314   0.000000
    8  H  1  X    0.000000   0.000000   0.000000   0.000000   0.211813
    9  H  1  Y    0.000000   0.000000   0.000000   0.000000   0.000000
   10  H  1  Z   -0.025875  -0.120622  -0.242268  -0.273010   0.000000
   11  H  1  X    0.000000   0.000000   0.000000   0.000000  -0.241275
   12  H  1  Y    0.000000   0.000000   0.000000   0.000000   0.000000
   13  H  1  Z   -0.009464  -0.054100  -0.137355  -0.193125   0.000000
   14  H  2  S   -0.103124  -0.350707  -0.466404  -0.495806   0.000000
   15  H  2  S   -0.350707  -0.541312  -0.642157  -0.672607   0.000000
   16  H  2  S   -0.466404  -0.642157  -0.799667  -0.846128   0.000000
   17  H  2  S   -0.495806  -0.672607  -0.846128  -0.915651   0.000000
   18  H  2  X    0.000000   0.000000   0.000000   0.000000  -0.101417
   19  H  2  Y    0.000000   0.000000   0.000000   0.000000   0.000000
   20  H  2  Z    0.609360   0.463747   0.387603   0.370087   0.000000
   21  H  2  X    0.000000   0.000000   0.000000   0.000000  -0.141863
   22  H  2  Y    0.000000   0.000000   0.000000   0.000000   0.000000
   23  H  2  Z    0.641665   0.600895   0.569285   0.522977   0.000000
   24  H  2  X    0.000000   0.000000   0.000000   0.000000  -0.216455
   25  H  2  Y    0.000000   0.000000   0.000000   0.000000   0.000000
   26  H  2  Z    0.507623   0.578478   0.578608   0.511315   0.000000

                      6          7          8          9         10

    6  H  1  Y    1.512333
    7  H  1  Z    0.000000   1.323493
    8  H  1  X    0.000000   0.000000   0.009639
    9  H  1  Y    0.211813   0.000000   0.000000   0.009639
   10  H  1  Z    0.000000   0.031967   0.000000   0.000000  -0.234981
   11  H  1  X    0.000000   0.000000  -0.304729   0.000000   0.000000
   12  H  1  Y   -0.241275   0.000000   0.000000  -0.304729   0.000000
   13  H  1  Z    0.000000  -0.337099   0.000000   0.000000  -0.468894
   14  H  2  S    0.000000  -0.609360   0.000000   0.000000  -0.641665
   15  H  2  S    0.000000  -0.463747   0.000000   0.000000  -0.600895
   16  H  2  S    0.000000  -0.387603   0.000000   0.000000  -0.569285
   17  H  2  S    0.000000  -0.370087   0.000000   0.000000  -0.522977
   18  H  2  X    0.000000   0.000000  -0.141863   0.000000   0.000000
   19  H  2  Y   -0.101417   0.000000   0.000000  -0.141863   0.000000
   20  H  2  Z    0.000000  -0.579984   0.000000   0.000000  -0.171536
   21  H  2  X    0.000000   0.000000  -0.207091   0.000000   0.000000
   22  H  2  Y   -0.141863   0.000000   0.000000  -0.207091   0.000000
   23  H  2  Z    0.000000  -0.171536   0.000000   0.000000  -0.167552
   24  H  2  X    0.000000   0.000000  -0.304213   0.000000   0.000000
   25  H  2  Y   -0.216455   0.000000   0.000000  -0.304213   0.000000
   26  H  2  Z    0.000000  -0.025762   0.000000   0.000000  -0.126664

                     11         12         13         14         15

   11  H  1  X   -0.379423
   12  H  1  Y    0.000000  -0.379423
   13  H  1  Z    0.000000   0.000000  -0.517854
   14  H  2  S    0.000000   0.000000  -0.507623   5.142034
   15  H  2  S    0.000000   0.000000  -0.578478   0.087867  -0.159133
   16  H  2  S    0.000000   0.000000  -0.578608  -0.881461  -0.831397
   17  H  2  S    0.000000   0.000000  -0.511315  -0.778045  -0.924998
   18  H  2  X   -0.216455   0.000000   0.000000   0.000000   0.000000
   19  H  2  Y    0.000000  -0.216455   0.000000   0.000000   0.000000
   20  H  2  Z    0.000000   0.000000  -0.025762   0.058652   0.184457
   21  H  2  X   -0.304213   0.000000   0.000000   0.000000   0.000000
   22  H  2  Y    0.000000  -0.304213   0.000000   0.000000   0.000000
   23  H  2  Z    0.000000   0.000000  -0.126664   0.025875   0.120622
   24  H  2  X   -0.368525   0.000000   0.000000   0.000000   0.000000
   25  H  2  Y    0.000000  -0.368525   0.000000   0.000000   0.000000
   26  H  2  Z    0.000000   0.000000  -0.225239   0.009464   0.054100

                     16         17         18         19         20

   16  H  2  S   -0.979979
   17  H  2  S   -1.033943  -1.050557
   18  H  2  X    0.000000   0.000000   1.512333
   19  H  2  Y    0.000000   0.000000   0.000000   1.512333
   20  H  2  Z    0.253934   0.221314   0.000000   0.000000   1.323493
   21  H  2  X    0.000000   0.000000   0.211813   0.000000   0.000000
   22  H  2  Y    0.000000   0.000000   0.000000   0.211813   0.000000
   23  H  2  Z    0.242268   0.273010   0.000000   0.000000   0.031967
   24  H  2  X    0.000000   0.000000  -0.241275   0.000000   0.000000
   25  H  2  Y    0.000000   0.000000   0.000000  -0.241275   0.000000
   26  H  2  Z    0.137355   0.193125   0.000000   0.000000  -0.337099

                     21         22         23         24         25

   21  H  2  X    0.009639
   22  H  2  Y    0.000000   0.009639
   23  H  2  Z    0.000000   0.000000  -0.234981
   24  H  2  X   -0.304729   0.000000   0.000000  -0.379423
   25  H  2  Y    0.000000  -0.304729   0.000000   0.000000  -0.379423
   26  H  2  Z    0.000000   0.000000  -0.468894   0.000000   0.000000

                     26

   26  H  2  Z   -0.517854
 KINETIC ENERGY INTEGRALS

                      1          2          3          4          5

    1  H  1  S   10.327655
    2  H  1  S    3.150259   2.692386
    3  H  1  S    0.922341   1.307430   1.066074
    4  H  1  S    0.248371   0.462244   0.561625   0.457203
    5  H  1  X    0.000000   0.000000   0.000000   0.000000   3.400000
    6  H  1  Y    0.000000   0.000000   0.000000   0.000000   0.000000
    7  H  1  Z    0.000000   0.000000   0.000000  -0.000000   0.000000
    8  H  1  X    0.000000   0.000000   0.000000   0.000000   1.490201
    9  H  1  Y    0.000000   0.000000   0.000000   0.000000   0.000000
   10  H  1  Z    0.000000   0.000000   0.000000   0.000000   0.000000
   11  H  1  X    0.000000   0.000000   0.000000   0.000000   0.359685
   12  H  1  Y    0.000000   0.000000   0.000000   0.000000   0.000000
   13  H  1  Z   -0.000000  -0.000000  -0.000000  -0.000000   0.000000
   14  H  2  S   -0.088445  -0.167189   0.047439   0.087714   0.000000
   15  H  2  S   -0.167189  -0.080709   0.160577   0.182646   0.000000
   16  H  2  S    0.047439   0.160577   0.283863   0.266320   0.000000
   17  H  2  S    0.087714   0.182646   0.266320   0.271369   0.000000
   18  H  2  X    0.000000   0.000000   0.000000   0.000000   0.417002
   19  H  2  Y    0.000000   0.000000   0.000000   0.000000   0.000000
   20  H  2  Z   -0.163007  -0.609144  -0.613725  -0.250026   0.000000
   21  H  2  X    0.000000   0.000000   0.000000   0.000000   0.486740
   22  H  2  Y    0.000000   0.000000   0.000000   0.000000   0.000000
   23  H  2  Z   -0.446256  -0.758549  -0.735342  -0.393772   0.000000
   24  H  2  X    0.000000   0.000000   0.000000   0.000000   0.213866
   25  H  2  Y    0.000000   0.000000   0.000000   0.000000   0.000000
   26  H  2  Z   -0.161904  -0.313354  -0.400220  -0.329350   0.000000

                      6          7          8          9         10

    6  H  1  Y    3.400000
    7  H  1  Z    0.000000   3.400000
    8  H  1  X    0.000000   0.000000   1.347500
    9  H  1  Y    1.490201   0.000000   0.000000   1.347500
   10  H  1  Z    0.000000   1.490201   0.000000   0.000000   1.347500
   11  H  1  X    0.000000   0.000000   0.591927   0.000000   0.000000
   12  H  1  Y    0.359685   0.000000   0.000000   0.591927   0.000000
   13  H  1  Z    0.000000   0.359685   0.000000   0.000000   0.591927
   14  H  2  S    0.000000   0.163007   0.000000   0.000000   0.446256
   15  H  2  S    0.000000   0.609144   0.000000   0.000000   0.758549
   16  H  2  S    0.000000   0.613725   0.000000   0.000000   0.735342
   17  H  2  S    0.000000   0.250026   0.000000   0.000000   0.393772
   18  H  2  X    0.000000   0.000000   0.486740   0.000000   0.000000
   19  H  2  Y    0.417002   0.000000   0.000000   0.486740   0.000000
   20  H  2  Z    0.000000  -1.651931   0.000000   0.000000  -0.674389
   21  H  2  X    0.000000   0.000000   0.625881   0.000000   0.000000
   22  H  2  Y    0.486740   0.000000   0.000000   0.625881   0.000000
   23  H  2  Z    0.000000  -0.674389   0.000000   0.000000  -0.372396
   24  H  2  X    0.000000   0.000000   0.385487   0.000000   0.000000
   25  H  2  Y    0.213866   0.000000   0.000000   0.385487   0.000000
   26  H  2  Z    0.000000  -0.014052   0.000000   0.000000   0.048224

                     11         12         13         14         15

   11  H  1  X    0.535000
   12  H  1  Y    0.000000   0.535000
   13  H  1  Z    0.000000   0.000000   0.535000
   14  H  2  S    0.000000   0.000000   0.161904  10.327655
   15  H  2  S    0.000000   0.000000   0.313354   3.150259   2.692386
   16  H  2  S    0.000000   0.000000   0.400220   0.922341   1.307430
   17  H  2  S    0.000000   0.000000   0.329350   0.248371   0.462244
   18  H  2  X    0.213866   0.000000   0.000000   0.000000   0.000000
   19  H  2  Y    0.000000   0.213866   0.000000   0.000000   0.000000
   20  H  2  Z    0.000000   0.000000  -0.014052  -0.000000  -0.000000
   21  H  2  X    0.385487   0.000000   0.000000   0.000000   0.000000
   22  H  2  Y    0.000000   0.385487   0.000000   0.000000   0.000000
   23  H  2  Z    0.000000   0.000000   0.048224  -0.000000  -0.000000
   24  H  2  X    0.397203   0.000000   0.000000   0.000000   0.000000
   25  H  2  Y    0.000000   0.397203   0.000000   0.000000   0.000000
   26  H  2  Z    0.000000   0.000000   0.157464   0.000000   0.000000

                     16         17         18         19         20

   16  H  2  S    1.066074
   17  H  2  S    0.561625   0.457203
   18  H  2  X    0.000000   0.000000   3.400000
   19  H  2  Y    0.000000   0.000000   0.000000   3.400000
   20  H  2  Z    0.000000   0.000000   0.000000   0.000000   3.400000
   21  H  2  X    0.000000   0.000000   1.490201   0.000000   0.000000
   22  H  2  Y    0.000000   0.000000   0.000000   1.490201   0.000000
   23  H  2  Z   -0.000000   0.000000   0.000000   0.000000   1.490201
   24  H  2  X    0.000000   0.000000   0.359685   0.000000   0.000000
   25  H  2  Y    0.000000   0.000000   0.000000   0.359685   0.000000
   26  H  2  Z    0.000000   0.000000   0.000000   0.000000   0.359685

                     21         22         23         24         25

   21  H  2  X    1.347500
   22  H  2  Y    0.000000   1.347500
   23  H  2  Z    0.000000   0.000000   1.347500
   24  H  2  X    0.591927   0.000000   0.000000   0.535000
   25  H  2  Y    0.000000   0.591927   0.000000   0.000000   0.535000
   26  H  2  Z    0.000000   0.000000   0.591927   0.000000   0.000000

                     26

   26  H  2  Z    0.535000
 Z-ANGULAR MOMENTUM INTEGRALS

                      1          2          3          4          5

    1  H  1  S    0.000000
    2  H  1  S    0.000000   0.000000
    3  H  1  S    0.000000   0.000000   0.000000
    4  H  1  S    0.000000   0.000000   0.000000   0.000000
    5  H  1  X    0.000000   0.000000   0.000000   0.000000   0.000000
    6  H  1  Y    0.000000   0.000000   0.000000   0.000000  -1.000000
    7  H  1  Z    0.000000   0.000000   0.000000   0.000000   0.000000
    8  H  1  X    0.000000   0.000000   0.000000   0.000000   0.000000
    9  H  1  Y    0.000000   0.000000   0.000000   0.000000  -0.772098
   10  H  1  Z    0.000000   0.000000   0.000000   0.000000   0.000000
   11  H  1  X    0.000000   0.000000   0.000000   0.000000   0.000000
   12  H  1  Y    0.000000   0.000000   0.000000   0.000000  -0.389049
   13  H  1  Z    0.000000   0.000000   0.000000   0.000000   0.000000
   14  H  2  S    0.000000   0.000000   0.000000   0.000000   0.000000
   15  H  2  S    0.000000   0.000000   0.000000   0.000000   0.000000
   16  H  2  S    0.000000   0.000000   0.000000   0.000000   0.000000
   17  H  2  S    0.000000   0.000000   0.000000   0.000000   0.000000
   18  H  2  X    0.000000   0.000000   0.000000   0.000000   0.000000
   19  H  2  Y    0.000000   0.000000   0.000000   0.000000  -0.263176
   20  H  2  Z    0.000000   0.000000   0.000000   0.000000   0.000000
   21  H  2  X    0.000000   0.000000   0.000000   0.000000   0.000000
   22  H  2  Y    0.000000   0.000000   0.000000   0.000000  -0.361881
   23  H  2  Z    0.000000   0.000000   0.000000   0.000000   0.000000
   24  H  2  X    0.000000   0.000000   0.000000   0.000000   0.000000
   25  H  2  Y    0.000000   0.000000   0.000000   0.000000  -0.270619
   26  H  2  Z    0.000000   0.000000   0.000000   0.000000   0.000000

                      6          7          8          9         10

    6  H  1  Y    0.000000
    7  H  1  Z    0.000000   0.000000
    8  H  1  X    0.772098   0.000000   0.000000
    9  H  1  Y    0.000000   0.000000  -1.000000   0.000000
   10  H  1  Z    0.000000   0.000000   0.000000   0.000000   0.000000
   11  H  1  X    0.389049   0.000000   0.000000   0.772842   0.000000
   12  H  1  Y    0.000000   0.000000  -0.772842   0.000000   0.000000
   13  H  1  Z    0.000000   0.000000   0.000000   0.000000   0.000000
   14  H  2  S    0.000000   0.000000   0.000000   0.000000   0.000000
   15  H  2  S    0.000000   0.000000   0.000000   0.000000   0.000000
   16  H  2  S    0.000000   0.000000   0.000000   0.000000   0.000000
   17  H  2  S    0.000000   0.000000   0.000000   0.000000   0.000000
   18  H  2  X    0.263176   0.000000   0.000000   0.361881   0.000000
   19  H  2  Y    0.000000   0.000000  -0.361881   0.000000   0.000000
   20  H  2  Z    0.000000   0.000000   0.000000   0.000000   0.000000
   21  H  2  X    0.361881   0.000000   0.000000   0.589156   0.000000
   22  H  2  Y    0.000000   0.000000  -0.589156   0.000000   0.000000
   23  H  2  Z    0.000000   0.000000   0.000000   0.000000   0.000000
   24  H  2  X    0.270619   0.000000   0.000000   0.572125   0.000000
   25  H  2  Y    0.000000   0.000000  -0.572125   0.000000   0.000000
   26  H  2  Z    0.000000   0.000000   0.000000   0.000000   0.000000

                     11         12         13         14         15

   11  H  1  X    0.000000
   12  H  1  Y   -1.000000   0.000000
   13  H  1  Z    0.000000   0.000000   0.000000
   14  H  2  S    0.000000   0.000000   0.000000   0.000000
   15  H  2  S    0.000000   0.000000   0.000000   0.000000   0.000000
   16  H  2  S    0.000000   0.000000   0.000000   0.000000   0.000000
   17  H  2  S    0.000000   0.000000   0.000000   0.000000   0.000000
   18  H  2  X    0.000000   0.270619   0.000000   0.000000   0.000000
   19  H  2  Y   -0.270619   0.000000   0.000000   0.000000   0.000000
   20  H  2  Z    0.000000   0.000000   0.000000   0.000000   0.000000
   21  H  2  X    0.000000   0.572125   0.000000   0.000000   0.000000
   22  H  2  Y   -0.572125   0.000000   0.000000   0.000000   0.000000
   23  H  2  Z    0.000000   0.000000   0.000000   0.000000   0.000000
   24  H  2  X    0.000000   0.810539   0.000000   0.000000   0.000000
   25  H  2  Y   -0.810539   0.000000   0.000000   0.000000   0.000000
   26  H  2  Z    0.000000   0.000000   0.000000   0.000000   0.000000

                     16         17         18         19         20

   16  H  2  S    0.000000
   17  H  2  S    0.000000   0.000000
   18  H  2  X    0.000000   0.000000   0.000000
   19  H  2  Y    0.000000   0.000000  -1.000000   0.000000
   20  H  2  Z    0.000000   0.000000   0.000000   0.000000   0.000000
   21  H  2  X    0.000000   0.000000   0.000000   0.772098   0.000000
   22  H  2  Y    0.000000   0.000000  -0.772098   0.000000   0.000000
   23  H  2  Z    0.000000   0.000000   0.000000   0.000000   0.000000
   24  H  2  X    0.000000   0.000000   0.000000   0.389049   0.000000
   25  H  2  Y    0.000000   0.000000  -0.389049   0.000000   0.000000
   26  H  2  Z    0.000000   0.000000   0.000000   0.000000   0.000000

                     21         22         23         24         25

   21  H  2  X    0.000000
   22  H  2  Y   -1.000000   0.000000
   23  H  2  Z    0.000000   0.000000   0.000000
   24  H  2  X    0.000000   0.772842   0.000000   0.000000
   25  H  2  Y   -0.772842   0.000000   0.000000  -1.000000   0.000000
   26  H  2  Z    0.000000   0.000000   0.000000   0.000000   0.000000

                     26

   26  H  2  Z    0.000000
 ...... END OF ONE-ELECTRON INTEGRALS ......
 STEP CPU TIME =     0.00 TOTAL CPU TIME =        0.0 (    0.0 MIN)
 TOTAL WALL CLOCK TIME=        0.0 SECONDS, CPU UTILIZATION IS   0.00%

          -------------
          GUESS OPTIONS
          -------------
          GUESS =HUCKEL            NORB  =       0          NORDER=       0
          MIX   =       F          PRTMO =       F          PUNMO =       F
          TOLZ  = 1.0E-08          TOLE  = 1.0E-05
          SYMDEN=       F          PURIFY=       F

 INITIAL GUESS ORBITALS GENERATED BY HUCKEL   ROUTINE.
 HUCKEL GUESS REQUIRES      6416 WORDS.

 SYMMETRIES FOR INITIAL GUESS ORBITALS FOLLOW.   BOTH SET(S).
     1 ORBITALS ARE OCCUPIED (    0 CORE ORBITALS).
     1=AG       2=B1U      3=AG       4=AG       5=AG       6=AG       7=AG  
     8=AG       9=B3U     10=B3U     11=B3U 
 ...... END OF INITIAL ORBITAL SELECTION ......
 STEP CPU TIME =     0.00 TOTAL CPU TIME =        0.0 (    0.0 MIN)
 TOTAL WALL CLOCK TIME=        0.0 SECONDS, CPU UTILIZATION IS   0.00%

                    ----------------------
                    AO INTEGRAL TECHNOLOGY
                    ----------------------
     S,P,L SHELL ROTATED AXIS INTEGRALS, REPROGRAMMED BY
        KAZUYA ISHIMURA (IMS) AND JOSE SIERRA (SYNSTAR).
     S,P,D,L SHELL ROTATED AXIS INTEGRALS PROGRAMMED BY
        KAZUYA ISHIMURA (INSTITUTE FOR MOLECULAR SCIENCE).
     S,P,D,F,G SHELL TO TOTAL QUARTET ANGULAR MOMENTUM SUM 5,
        ERIC PROGRAM BY GRAHAM FLETCHER (ELORET AND NASA ADVANCED
        SUPERCOMPUTING DIVISION, AMES RESEARCH CENTER).
     S,P,D,F,G,L SHELL GENERAL RYS QUADRATURE PROGRAMMED BY
        MICHEL DUPUIS (PACIFIC NORTHWEST NATIONAL LABORATORY).

          --------------------
          2 ELECTRON INTEGRALS
          --------------------

 THE -PK- OPTION IS OFF, THE INTEGRALS ARE NOT IN SUPERMATRIX FORM.
 STORING   15000 INTEGRALS/RECORD ON DISK, USING 12 BYTES/INTEGRAL.
 TWO ELECTRON INTEGRAL EVALUATION REQUIRES   89461 WORDS OF MEMORY.
 II,JST,KST,LST =  1  1  1  1 NREC =         1 INTLOC =    1
 II,JST,KST,LST =  2  1  1  1 NREC =         1 INTLOC =    1
 II,JST,KST,LST =  3  1  1  1 NREC =         1 INTLOC =    1
 II,JST,KST,LST =  4  1  1  1 NREC =         1 INTLOC =    1
 II,JST,KST,LST =  5  1  1  1 NREC =         1 INTLOC =    1
 II,JST,KST,LST =  6  1  1  1 NREC =         1 INTLOC =    1
 II,JST,KST,LST =  7  1  1  1 NREC =         1 INTLOC =    1
 II,JST,KST,LST =  8  1  1  1 NREC =         1 INTLOC =    1
 II,JST,KST,LST =  9  1  1  1 NREC =         1 INTLOC =    5
 II,JST,KST,LST = 10  1  1  1 NREC =         1 INTLOC =   32
 II,JST,KST,LST = 11  1  1  1 NREC =         1 INTLOC =  124
 II,JST,KST,LST = 12  1  1  1 NREC =         1 INTLOC =  347
 II,JST,KST,LST = 13  1  1  1 NREC =         1 INTLOC = 1146
 II,JST,KST,LST = 14  1  1  1 NREC =         1 INTLOC = 3562
 TOTAL NUMBER OF NONZERO TWO-ELECTRON INTEGRALS =                8992
          1 INTEGRAL RECORDS WERE STORED ON DISK FILE  8.
  ...... END OF TWO-ELECTRON INTEGRALS .....
 STEP CPU TIME =     0.03 TOTAL CPU TIME =        0.0 (    0.0 MIN)
 TOTAL WALL CLOCK TIME=        0.0 SECONDS, CPU UTILIZATION IS 100.00%

          --------------------------
                 RHF SCF CALCULATION
          --------------------------

     NUCLEAR ENERGY =         0.7137154556
     MAXIT =   30     NPUNCH=    2
     EXTRAP=T  DAMP=F  SHIFT=F  RSTRCT=F  DIIS=F  DEM=F  SOSCF=T
     DENSITY MATRIX CONV=  1.00E-06
     SOSCF WILL OPTIMIZE      25 ORBITAL ROTATIONS, SOGTOL=   0.250
     MEMORY REQUIRED FOR RHF ITERS=     35196 WORDS.

 ITER EX DEM     TOTAL ENERGY        E CHANGE  DENSITY CHANGE     ORB. GRAD
   1  0  0       -1.1044681449    -1.1044681449   0.058757486   0.000000000
          ---------------START SECOND ORDER SCF---------------
   2  1  0       -1.1161362400    -0.0116680951   0.004022470   0.011833218
   3  2  0       -1.1162625829    -0.0001263429   0.000565543   0.001307469
   4  3  0       -1.1162651275    -0.0000025445   0.000058923   0.000064770
   5  4  0       -1.1162651373    -0.0000000099   0.000017494   0.000013464
   6  5  0       -1.1162651378    -0.0000000004   0.000001394   0.000000937
   7  6  0       -1.1162651378    -0.0000000000   0.000000308   0.000000165

          -----------------
          DENSITY CONVERGED
          -----------------
     TIME TO FORM FOCK OPERATORS=       0.0 SECONDS (       0.0 SEC/ITER)
     TIME TO SOLVE SCF EQUATIONS=       0.0 SECONDS (       0.0 SEC/ITER)

 FINAL RHF ENERGY IS       -1.1162651378 AFTER   7 ITERATIONS

 LZ VALUE ANALYSIS FOR THE MOS
 ----------------------------------------
 MO     1 (    1) HAS LZ(WEIGHT)= 0.00(100.0%) 
 MO     2 (    2) HAS LZ(WEIGHT)= 0.00(100.0%) 
 MO     3 (    3) HAS LZ(WEIGHT)=-1.00( 50.0%)  1.00( 50.0%) 
 MO     4 (    3) HAS LZ(WEIGHT)=-1.00( 50.0%)  1.00( 50.0%) 
 MO     5 (    4) HAS LZ(WEIGHT)= 0.00(100.0%) 
 MO     6 (    5) HAS LZ(WEIGHT)=-1.00( 50.0%)  1.00( 50.0%) 
 MO     7 (    5) HAS LZ(WEIGHT)=-1.00( 50.0%)  1.00( 50.0%) 
 MO     8 (    6) HAS LZ(WEIGHT)= 0.00(100.0%) 
 MO     9 (    7) HAS LZ(WEIGHT)= 0.00(100.0%) 
 MO    10 (    8) HAS LZ(WEIGHT)=-1.00( 50.0%)  1.00( 50.0%) 
 MO    11 (    8) HAS LZ(WEIGHT)=-1.00( 50.0%)  1.00( 50.0%) 
 MO    12 (    9) HAS LZ(WEIGHT)= 0.00(100.0%) 
 MO    13 (   10) HAS LZ(WEIGHT)= 0.00(100.0%) 
 MO    14 (   11) HAS LZ(WEIGHT)=-1.00( 50.0%)  1.00( 50.0%) 
 MO    15 (   11) HAS LZ(WEIGHT)=-1.00( 50.0%)  1.00( 50.0%) 
 MO    16 (   12) HAS LZ(WEIGHT)= 0.00(100.0%) 
 MO    17 (   13) HAS LZ(WEIGHT)= 0.00(100.0%) 
 MO    18 (   14) HAS LZ(WEIGHT)=-1.00( 50.0%)  1.00( 50.0%) 
 MO    19 (   14) HAS LZ(WEIGHT)=-1.00( 50.0%)  1.00( 50.0%) 
 MO    20 (   15) HAS LZ(WEIGHT)= 0.00(100.0%) 
 MO    21 (   16) HAS LZ(WEIGHT)=-1.00( 50.0%)  1.00( 50.0%) 
 MO    22 (   16) HAS LZ(WEIGHT)=-1.00( 50.0%)  1.00( 50.0%) 
 MO    23 (   17) HAS LZ(WEIGHT)= 0.00(100.0%) 
 MO    24 (   18) HAS LZ(WEIGHT)= 0.00(100.0%) 
 MO    25 (   19) HAS LZ(WEIGHT)= 0.00(100.0%) 
 MO    26 (   20) HAS LZ(WEIGHT)= 0.00(100.0%) 

          ------------
          EIGENVECTORS
          ------------

                      1          2          3          4          5
                   -0.5714     0.2514     0.3888     0.3888     0.5564
                     AG         B1U        B2U        B3U        AG  
    1  H  1  S    0.028694  -0.020846   0.000000   0.000000   0.018911
    2  H  1  S    0.110773   0.045718   0.000000   0.000000  -0.045017
    3  H  1  S    0.014822  -0.474014   0.000000   0.000000   0.417967
    4  H  1  S    0.451714   1.654624   0.000000   0.000000  -0.745143
    5  H  1  X   -0.000000   0.000000   0.000000   0.077985  -0.000000
    6  H  1  Y   -0.000000   0.000000   0.077985   0.000000  -0.000000
    7  H  1  Z    0.012042   0.015954   0.000000   0.000000   0.081568
    8  H  1  X   -0.000000   0.000000   0.000000  -0.233187  -0.000000
    9  H  1  Y   -0.000000   0.000000  -0.233187   0.000000  -0.000000
   10  H  1  Z    0.022016  -0.087268   0.000000   0.000000  -0.322202
   11  H  1  X   -0.000000   0.000000   0.000000   0.662439  -0.000000
   12  H  1  Y   -0.000000   0.000000   0.662439   0.000000  -0.000000
   13  H  1  Z   -0.037758   1.107216   0.000000   0.000000   1.406021
   14  H  2  S    0.028694   0.020846   0.000000   0.000000   0.018911
   15  H  2  S    0.110773  -0.045718   0.000000   0.000000  -0.045017
   16  H  2  S    0.014822   0.474014   0.000000   0.000000   0.417967
   17  H  2  S    0.451714  -1.654624   0.000000   0.000000  -0.745143
   18  H  2  X   -0.000000   0.000000   0.000000   0.077985  -0.000000
   19  H  2  Y   -0.000000   0.000000   0.077985   0.000000  -0.000000
   20  H  2  Z   -0.012042   0.015954   0.000000   0.000000  -0.081568
   21  H  2  X   -0.000000   0.000000   0.000000  -0.233187  -0.000000
   22  H  2  Y   -0.000000   0.000000  -0.233187   0.000000  -0.000000
   23  H  2  Z   -0.022016  -0.087268   0.000000   0.000000   0.322202
   24  H  2  X   -0.000000   0.000000   0.000000   0.662439  -0.000000
   25  H  2  Y   -0.000000   0.000000   0.662439   0.000000  -0.000000
   26  H  2  Z    0.037758   1.107216   0.000000   0.000000  -1.406021

                      6          7          8          9         10
                    0.6278     0.6278     0.8162     1.1064     1.4854
                     B2G        B3G        B1U        AG         B2U 
    1  H  1  S   -0.000000  -0.000000   0.008815   0.066892  -0.000000
    2  H  1  S   -0.000000  -0.000000   0.256608  -0.282090  -0.000000
    3  H  1  S   -0.000000  -0.000000  -0.889477   1.583272  -0.000000
    4  H  1  S   -0.000000  -0.000000   5.787253  -1.085503  -0.000000
    5  H  1  X    0.088466  -0.000000  -0.000000  -0.000000  -0.000000
    6  H  1  Y   -0.000000   0.088466  -0.000000  -0.000000  -0.183463
    7  H  1  Z   -0.000000  -0.000000  -0.038814  -0.043549  -0.000000
    8  H  1  X   -0.439712  -0.000000  -0.000000  -0.000000  -0.000000
    9  H  1  Y   -0.000000  -0.439712  -0.000000  -0.000000   1.097490
   10  H  1  Z   -0.000000  -0.000000   0.047385   0.161444  -0.000000
   11  H  1  X    1.999988  -0.000000  -0.000000  -0.000000  -0.000000
   12  H  1  Y   -0.000000   1.999988  -0.000000  -0.000000  -0.659894
   13  H  1  Z   -0.000000  -0.000000   1.898804  -0.649824  -0.000000
   14  H  2  S   -0.000000  -0.000000  -0.008815   0.066892  -0.000000
   15  H  2  S   -0.000000  -0.000000  -0.256608  -0.282090  -0.000000
   16  H  2  S   -0.000000  -0.000000   0.889477   1.583272  -0.000000
   17  H  2  S   -0.000000  -0.000000  -5.787253  -1.085503  -0.000000
   18  H  2  X   -0.088466  -0.000000  -0.000000  -0.000000  -0.000000
   19  H  2  Y   -0.000000  -0.088466  -0.000000  -0.000000  -0.183463
   20  H  2  Z   -0.000000  -0.000000  -0.038814   0.043549  -0.000000
   21  H  2  X    0.439712  -0.000000  -0.000000  -0.000000  -0.000000
   22  H  2  Y   -0.000000   0.439712  -0.000000  -0.000000   1.097490
   23  H  2  Z   -0.000000  -0.000000   0.047385  -0.161444  -0.000000
   24  H  2  X   -1.999988  -0.000000  -0.000000  -0.000000  -0.000000
   25  H  2  Y   -0.000000  -1.999988  -0.000000  -0.000000  -0.659894
   26  H  2  Z   -0.000000  -0.000000   1.898804   0.649824  -0.000000

                     11         12         13         14         15
                    1.4854     1.8538     1.8851     1.9854     1.9854
                     B3U        B1U        AG         B3G        B2G 
    1  H  1  S   -0.000000  -0.048523  -0.015833  -0.000000  -0.000000
    2  H  1  S   -0.000000   0.180421   0.132449  -0.000000  -0.000000
    3  H  1  S   -0.000000  -1.462413  -0.906008  -0.000000  -0.000000
    4  H  1  S   -0.000000   9.983324   0.667425  -0.000000  -0.000000
    5  H  1  X   -0.183463   0.000000   0.000000  -0.000000  -0.236578
    6  H  1  Y   -0.000000   0.000000   0.000000  -0.236578  -0.000000
    7  H  1  Z   -0.000000  -0.256597  -0.196864  -0.000000  -0.000000
    8  H  1  X    1.097490   0.000000   0.000000  -0.000000   1.871290
    9  H  1  Y   -0.000000   0.000000   0.000000   1.871290  -0.000000
   10  H  1  Z   -0.000000   2.624577   1.385189  -0.000000  -0.000000
   11  H  1  X   -0.659894   0.000000   0.000000  -0.000000  -1.501854
   12  H  1  Y   -0.000000   0.000000   0.000000  -1.501854  -0.000000
   13  H  1  Z   -0.000000   1.681821  -1.036600  -0.000000  -0.000000
   14  H  2  S   -0.000000   0.048523  -0.015833  -0.000000  -0.000000
   15  H  2  S   -0.000000  -0.180421   0.132449  -0.000000  -0.000000
   16  H  2  S   -0.000000   1.462413  -0.906008  -0.000000  -0.000000
   17  H  2  S   -0.000000  -9.983324   0.667425  -0.000000  -0.000000
   18  H  2  X   -0.183463   0.000000   0.000000  -0.000000   0.236578
   19  H  2  Y   -0.000000   0.000000   0.000000   0.236578  -0.000000
   20  H  2  Z   -0.000000  -0.256597   0.196864  -0.000000  -0.000000
   21  H  2  X    1.097490   0.000000   0.000000  -0.000000  -1.871290
   22  H  2  Y   -0.000000   0.000000   0.000000  -1.871290  -0.000000
   23  H  2  Z   -0.000000   2.624577  -1.385189  -0.000000  -0.000000
   24  H  2  X   -0.659894   0.000000   0.000000  -0.000000   1.501854
   25  H  2  Y   -0.000000   0.000000   0.000000   1.501854  -0.000000
   26  H  2  Z   -0.000000   1.681821   1.036600  -0.000000  -0.000000

                     16         17         18         19         20
                    2.3526     4.2768     4.6449     4.6449     4.9711
                     B1U        AG         B3U        B2U        AG  
    1  H  1  S    0.074217   0.049463  -0.000000  -0.000000   0.042525
    2  H  1  S   -0.339812  -1.389308  -0.000000  -0.000000  -1.393275
    3  H  1  S    3.284013   1.665220  -0.000000  -0.000000   1.872863
    4  H  1  S   -0.190488  -0.557874  -0.000000  -0.000000  -0.777250
    5  H  1  X    0.000000   0.000000   1.233878  -0.000000  -0.000000
    6  H  1  Y    0.000000   0.000000  -0.000000   1.233878  -0.000000
    7  H  1  Z   -0.202513  -0.775565  -0.000000  -0.000000   0.798846
    8  H  1  X    0.000000   0.000000  -1.203821  -0.000000  -0.000000
    9  H  1  Y    0.000000   0.000000  -0.000000  -1.203821  -0.000000
   10  H  1  Z    2.867785   0.989047  -0.000000  -0.000000  -0.949447
   11  H  1  X    0.000000   0.000000   0.425150  -0.000000  -0.000000
   12  H  1  Y    0.000000   0.000000  -0.000000   0.425150  -0.000000
   13  H  1  Z   -0.735781  -0.624770  -0.000000  -0.000000   0.398363
   14  H  2  S   -0.074217   0.049463  -0.000000  -0.000000   0.042525
   15  H  2  S    0.339812  -1.389308  -0.000000  -0.000000  -1.393275
   16  H  2  S   -3.284013   1.665220  -0.000000  -0.000000   1.872863
   17  H  2  S    0.190488  -0.557874  -0.000000  -0.000000  -0.777250
   18  H  2  X    0.000000   0.000000   1.233878  -0.000000  -0.000000
   19  H  2  Y    0.000000   0.000000  -0.000000   1.233878  -0.000000
   20  H  2  Z   -0.202513   0.775565  -0.000000  -0.000000  -0.798846
   21  H  2  X    0.000000   0.000000  -1.203821  -0.000000  -0.000000
   22  H  2  Y    0.000000   0.000000  -0.000000  -1.203821  -0.000000
   23  H  2  Z    2.867785  -0.989047  -0.000000  -0.000000   0.949447
   24  H  2  X    0.000000   0.000000   0.425150  -0.000000  -0.000000
   25  H  2  Y    0.000000   0.000000  -0.000000   0.425150  -0.000000
   26  H  2  Z   -0.735781   0.624770  -0.000000  -0.000000  -0.398363

                     21         22         23         24         25
                    5.2815     5.2815     5.3116     6.2508    17.9998
                     B3G        B2G        B1U        B1U        AG  
    1  H  1  S   -0.000000  -0.000000  -0.042324  -0.015142  -1.361607
    2  H  1  S   -0.000000  -0.000000   2.270214  -0.111298   2.155971
    3  H  1  S   -0.000000  -0.000000  -5.242413  -0.386861  -1.627411
    4  H  1  S   -0.000000  -0.000000   5.590018   3.340396   0.530641
    5  H  1  X   -0.000000  -1.380949   0.000000   0.000000   0.000000
    6  H  1  Y   -1.380949  -0.000000   0.000000   0.000000   0.000000
    7  H  1  Z   -0.000000  -0.000000  -0.387295  -1.910315  -0.076226
    8  H  1  X   -0.000000   1.701584   0.000000   0.000000   0.000000
    9  H  1  Y    1.701584  -0.000000   0.000000   0.000000   0.000000
   10  H  1  Z   -0.000000  -0.000000  -0.332285   2.210260   0.078342
   11  H  1  X   -0.000000  -0.894641   0.000000   0.000000   0.000000
   12  H  1  Y   -0.894641  -0.000000   0.000000   0.000000   0.000000
   13  H  1  Z   -0.000000  -0.000000   1.174184   0.242330   0.025968
   14  H  2  S   -0.000000  -0.000000   0.042324   0.015142  -1.361607
   15  H  2  S   -0.000000  -0.000000  -2.270214   0.111298   2.155971
   16  H  2  S   -0.000000  -0.000000   5.242413   0.386861  -1.627411
   17  H  2  S   -0.000000  -0.000000  -5.590018  -3.340396   0.530641
   18  H  2  X   -0.000000   1.380949   0.000000   0.000000   0.000000
   19  H  2  Y    1.380949  -0.000000   0.000000   0.000000   0.000000
   20  H  2  Z   -0.000000  -0.000000  -0.387295  -1.910315   0.076226
   21  H  2  X   -0.000000  -1.701584   0.000000   0.000000   0.000000
   22  H  2  Y   -1.701584  -0.000000   0.000000   0.000000   0.000000
   23  H  2  Z   -0.000000  -0.000000  -0.332285   2.210260  -0.078342
   24  H  2  X   -0.000000   0.894641   0.000000   0.000000   0.000000
   25  H  2  Y    0.894641  -0.000000   0.000000   0.000000   0.000000
   26  H  2  Z   -0.000000  -0.000000   1.174184   0.242330  -0.025968

                     26
                   19.9310
                     B1U 
    1  H  1  S    1.481522
    2  H  1  S   -2.749232
    3  H  1  S    3.336729
    4  H  1  S   -2.627214
    5  H  1  X    0.000000
    6  H  1  Y    0.000000
    7  H  1  Z   -0.126248
    8  H  1  X    0.000000
    9  H  1  Y    0.000000
   10  H  1  Z    0.506949
   11  H  1  X    0.000000
   12  H  1  Y    0.000000
   13  H  1  Z   -0.603292
   14  H  2  S   -1.481522
   15  H  2  S    2.749232
   16  H  2  S   -3.336729
   17  H  2  S    2.627214
   18  H  2  X    0.000000
   19  H  2  Y    0.000000
   20  H  2  Z   -0.126248
   21  H  2  X    0.000000
   22  H  2  Y    0.000000
   23  H  2  Z    0.506949
   24  H  2  X    0.000000
   25  H  2  Y    0.000000
   26  H  2  Z   -0.603292
 ...... END OF RHF CALCULATION ......
 STEP CPU TIME =     0.01 TOTAL CPU TIME =        0.0 (    0.0 MIN)
 TOTAL WALL CLOCK TIME=        0.0 SECONDS, CPU UTILIZATION IS 100.00%

     ----------------------------------------------------------------
     PROPERTY VALUES FOR THE RHF   SELF-CONSISTENT FIELD WAVEFUNCTION
     ----------------------------------------------------------------

          -----------------
          ENERGY COMPONENTS
          -----------------

         WAVEFUNCTION NORMALIZATION =       1.0000000000

                ONE ELECTRON ENERGY =      -2.5172591556
                TWO ELECTRON ENERGY =       0.6872785622
           NUCLEAR REPULSION ENERGY =       0.7137154556
                                      ------------------
                       TOTAL ENERGY =      -1.1162651378

 ELECTRON-ELECTRON POTENTIAL ENERGY =       0.6872785622
  NUCLEUS-ELECTRON POTENTIAL ENERGY =      -3.7292045429
   NUCLEUS-NUCLEUS POTENTIAL ENERGY =       0.7137154556
                                      ------------------
             TOTAL POTENTIAL ENERGY =      -2.3282105251
               TOTAL KINETIC ENERGY =       1.2119453873
                 VIRIAL RATIO (V/T) =       1.9210523423

  ...... PI ENERGY ANALYSIS ......

 ENERGY ANALYSIS:
            FOCK ENERGY=     -1.1427020567
          BARE H ENERGY=     -2.5172591556
     ELECTRONIC ENERGY =     -1.8299806061
         KINETIC ENERGY=      1.2119453873
          N-N REPULSION=      0.7137154556
           TOTAL ENERGY=     -1.1162651505
        SIGMA PART(1+2)=     -1.8299806061
               (K,V1,2)=      1.2119453873     -3.7292045429      0.6872785495
           PI PART(1+2)=      0.0000000000
               (K,V1,2)=      0.0000000000      0.0000000000      0.0000000000
  SIGMA SKELETON, ERROR=     -1.1162651505      0.0000000000
             MIXED PART= 0.00000E+00 0.00000E+00 0.00000E+00 0.00000E+00
 ...... END OF PI ENERGY ANALYSIS ......
 MEMORY ASSIGNEMENT
 I10, I20, I21, I30, I31, I40, I41, I60 =
****************************************************************
 LAST = ********

          ---------------------------------------
          MULLIKEN AND LOWDIN POPULATION ANALYSES
          ---------------------------------------
 MEMORY ASSIGNMENT
 I10, I30, I40, I50, I60, I70, I41, I51, I61, I71 =
********************************************************************************
 LAST = ********

          ----- MULLIKEN ATOMIC OVERLAP POPULATIONS -----
          (OFF-DIAGONAL ELEMENTS NEED TO BE MULTIPLIED BY 2)

                      1          2          3          4          5

    1  H  1  S    0.001647
    2  H  1  S    0.004900   0.024541
    3  H  1  S    0.000416   0.002811   0.000439
    4  H  1  S    0.007438   0.059180   0.011751   0.408091
    5  H  1  X    0.000000   0.000000   0.000000   0.000000   0.000000
    6  H  1  Y    0.000000   0.000000   0.000000   0.000000   0.000000
    7  H  1  Z   -0.000000   0.000000   0.000000   0.000000   0.000000
    8  H  1  X    0.000000   0.000000   0.000000   0.000000   0.000000
    9  H  1  Y    0.000000   0.000000   0.000000   0.000000   0.000000
   10  H  1  Z   -0.000000  -0.000000   0.000000   0.000000   0.000000
   11  H  1  X    0.000000   0.000000   0.000000   0.000000   0.000000
   12  H  1  Y    0.000000   0.000000   0.000000   0.000000   0.000000
   13  H  1  Z    0.000000  -0.000000  -0.000000   0.000000   0.000000
   14  H  2  S    0.000008   0.000345   0.000121   0.004221   0.000000
   15  H  2  S    0.000345   0.004214   0.001035   0.035484   0.000000
   16  H  2  S    0.000121   0.001035   0.000219   0.007731   0.000000
   17  H  2  S    0.004221   0.035484   0.007731   0.302568   0.000000
   18  H  2  X    0.000000   0.000000   0.000000   0.000000   0.000000
   19  H  2  Y    0.000000   0.000000   0.000000   0.000000   0.000000
   20  H  2  Z    0.000146   0.001070   0.000148   0.002716   0.000000
   21  H  2  X    0.000000   0.000000   0.000000   0.000000   0.000000
   22  H  2  Y    0.000000   0.000000   0.000000   0.000000   0.000000
   23  H  2  Z    0.000374   0.002647   0.000412   0.009497   0.000000
   24  H  2  X    0.000000   0.000000   0.000000   0.000000   0.000000
   25  H  2  Y    0.000000   0.000000   0.000000   0.000000   0.000000
   26  H  2  Z   -0.000407  -0.003226  -0.000625  -0.019829   0.000000

                      6          7          8          9         10

    6  H  1  Y    0.000000
    7  H  1  Z    0.000000   0.000290
    8  H  1  X    0.000000   0.000000   0.000000
    9  H  1  Y    0.000000   0.000000   0.000000   0.000000
   10  H  1  Z    0.000000   0.000409   0.000000   0.000000   0.000969
   11  H  1  X    0.000000   0.000000   0.000000   0.000000   0.000000
   12  H  1  Y    0.000000   0.000000   0.000000   0.000000   0.000000
   13  H  1  Z    0.000000  -0.000354   0.000000   0.000000  -0.001285
   14  H  2  S    0.000000   0.000146   0.000000   0.000000   0.000374
   15  H  2  S    0.000000   0.001070   0.000000   0.000000   0.002647
   16  H  2  S    0.000000   0.000148   0.000000   0.000000   0.000412
   17  H  2  S    0.000000   0.002716   0.000000   0.000000   0.009497
   18  H  2  X    0.000000   0.000000   0.000000   0.000000   0.000000
   19  H  2  Y    0.000000   0.000000   0.000000   0.000000   0.000000
   20  H  2  Z    0.000000   0.000127   0.000000   0.000000   0.000099
   21  H  2  X    0.000000   0.000000   0.000000   0.000000   0.000000
   22  H  2  Y    0.000000   0.000000   0.000000   0.000000   0.000000
   23  H  2  Z    0.000000   0.000099   0.000000   0.000000   0.000033
   24  H  2  X    0.000000   0.000000   0.000000   0.000000   0.000000
   25  H  2  Y    0.000000   0.000000   0.000000   0.000000   0.000000
   26  H  2  Z    0.000000   0.000067   0.000000   0.000000   0.000379

                     11         12         13         14         15

   11  H  1  X    0.000000
   12  H  1  Y    0.000000   0.000000
   13  H  1  Z    0.000000   0.000000   0.002851
   14  H  2  S    0.000000   0.000000  -0.000407   0.001647
   15  H  2  S    0.000000   0.000000  -0.003226   0.004900   0.024541
   16  H  2  S    0.000000   0.000000  -0.000625   0.000416   0.002811
   17  H  2  S    0.000000   0.000000  -0.019829   0.007438   0.059180
   18  H  2  X    0.000000   0.000000   0.000000   0.000000   0.000000
   19  H  2  Y    0.000000   0.000000   0.000000   0.000000   0.000000
   20  H  2  Z    0.000000   0.000000   0.000067  -0.000000  -0.000000
   21  H  2  X    0.000000   0.000000   0.000000   0.000000   0.000000
   22  H  2  Y    0.000000   0.000000   0.000000   0.000000   0.000000
   23  H  2  Z    0.000000   0.000000   0.000379  -0.000000  -0.000000
   24  H  2  X    0.000000   0.000000   0.000000   0.000000   0.000000
   25  H  2  Y    0.000000   0.000000   0.000000   0.000000   0.000000
   26  H  2  Z    0.000000   0.000000  -0.001340   0.000000   0.000000

                     16         17         18         19         20

   16  H  2  S    0.000439
   17  H  2  S    0.011751   0.408091
   18  H  2  X    0.000000   0.000000   0.000000
   19  H  2  Y    0.000000   0.000000   0.000000   0.000000
   20  H  2  Z   -0.000000  -0.000000   0.000000   0.000000   0.000290
   21  H  2  X    0.000000   0.000000   0.000000   0.000000   0.000000
   22  H  2  Y    0.000000   0.000000   0.000000   0.000000   0.000000
   23  H  2  Z    0.000000  -0.000000   0.000000   0.000000   0.000409
   24  H  2  X    0.000000   0.000000   0.000000   0.000000   0.000000
   25  H  2  Y    0.000000   0.000000   0.000000   0.000000   0.000000
   26  H  2  Z   -0.000000   0.000000   0.000000   0.000000  -0.000354

                     21         22         23         24         25

   21  H  2  X    0.000000
   22  H  2  Y    0.000000   0.000000
   23  H  2  Z    0.000000   0.000000   0.000969
   24  H  2  X    0.000000   0.000000   0.000000   0.000000
   25  H  2  Y    0.000000   0.000000   0.000000   0.000000   0.000000
   26  H  2  Z    0.000000   0.000000  -0.001285   0.000000   0.000000

                     26

   26  H  2  Z    0.002851

               ----- POPULATIONS IN EACH AO -----
                             MULLIKEN      LOWDIN
              1  H  1  S      0.01921     0.02840
              2  H  1  S      0.13300     0.10894
              3  H  1  S      0.02446     0.26166
              4  H  1  S      0.82885     0.55828
              5  H  1  X      0.00000     0.00000
              6  H  1  Y      0.00000     0.00000
              7  H  1  Z      0.00472     0.00558
              8  H  1  X      0.00000     0.00000
              9  H  1  Y      0.00000     0.00000
             10  H  1  Z      0.01354     0.01388
             11  H  1  X      0.00000     0.00000
             12  H  1  Y      0.00000     0.00000
             13  H  1  Z     -0.02377     0.02325
             14  H  2  S      0.01921     0.02840
             15  H  2  S      0.13300     0.10894
             16  H  2  S      0.02446     0.26166
             17  H  2  S      0.82885     0.55828
             18  H  2  X      0.00000     0.00000
             19  H  2  Y      0.00000     0.00000
             20  H  2  Z      0.00472     0.00558
             21  H  2  X      0.00000     0.00000
             22  H  2  Y      0.00000     0.00000
             23  H  2  Z      0.01354     0.01388
             24  H  2  X      0.00000     0.00000
             25  H  2  Y      0.00000     0.00000
             26  H  2  Z     -0.02377     0.02325

          ----- MULLIKEN ATOMIC OVERLAP POPULATIONS -----
          (OFF-DIAGONAL ELEMENTS NEED TO BE MULTIPLIED BY 2)

             1           2

    1    0.6093606
    2    0.3906394   0.6093606

          TOTAL MULLIKEN AND LOWDIN ATOMIC POPULATIONS
       ATOM         MULL.POP.                    LOW.POP.

          TOTAL MULLIKEN AND LOWDIN ATOMIC POPULATIONS
       ATOM         MULL.POP.    CHARGE          LOW.POP.     CHARGE
    1 H             1.000000                     1.000000
    1 H             1.000000   -0.000000         1.000000   -0.000000
    2 H             1.000000                     1.000000
    2 H             1.000000   -0.000000         1.000000   -0.000000

          ---------------------
          ELECTROSTATIC MOMENTS
          ---------------------

 POINT   1           X           Y           Z (BOHR)    CHARGE
                 0.000000    0.000000    0.000000       -0.00 (A.U.)
         DX          DY          DZ         /D/  (DEBYE)
     0.000000    0.000000    0.000000    0.000000
 ...... END OF PROPERTY EVALUATION ......
 STEP CPU TIME =     0.00 TOTAL CPU TIME =        0.0 (    0.0 MIN)
 TOTAL WALL CLOCK TIME=        0.1 SECONDS, CPU UTILIZATION IS  80.00%

 GUGA CI OPTIONS      NRNFG     NPFLG
 ------------------------------------

 -DRT- TABLE          1         0
 TRANSFORMATION       1         2
 ENERGY MATRIX        1         0
 DIAGONALIZATION      1         0
 1E-DENSITY MATRIX    1         0
 2E-DENSITY MATRIX    0         0
 LAGRANGIAN MATRIX    0         0
------------------------------------

 -DRT- TABLE          0         0
 TRANSFORMATION   

          -----------------------     ----------------------------
          GUGA DISTINCT ROW TABLE     WRITTEN BY B.R.BROOKS,P.SAXE
          -----------------------     ----------------------------

      GROUP=D2H          NPRT=       0
       FORS=       F   INTACT=       F
       FOCI=       F   MXNINT=   50000
       SOCI=       F   MXNEME=   10000
     IEXCIT=       2

      -CORE-    -INTERNAL-  -EXTERNAL-
     NFZC=   0   NDOC=   1   NEXT=   0
     NMCC=   0   NAOS=   0   NFZV=   0
                 NBOS=   0
                 NALP=   0
                 NVAL=  25

 THE MAXIMUM ELECTRON EXCITATION WILL BE   2

 SYMMETRIES FOR THE   0 CORE,  26 ACTIVE,   0 EXTERNAL MO-S ARE
   ACTIVE= AG    B1U   B2U   B3U   AG    B2G   B3G   B1U   AG    B2U 
           DOC   VAL   VAL   VAL   VAL   VAL   VAL   VAL   VAL   VAL 
   ACTIVE= B3U   B1U   AG    B3G   B2G   B1U   AG    B3U   B2U   AG  
           VAL   VAL   VAL   VAL   VAL   VAL   VAL   VAL   VAL   VAL 
   ACTIVE= B3G   B2G   B1U   B1U   AG    B1U 
           VAL   VAL   VAL   VAL   VAL   VAL 

 MOLECULAR CHARGE          =    0
 NUMBER OF ALPHA ELECTRONS =    1
 NUMBER OF  BETA ELECTRONS =    1

 THE ELECTRONIC STATE IS  1-AG  

 THE DISTINCT ROW TABLE HAS        91 ROWS.
  THE WAVEFUNCTION CONTAINS        80 WALKS (CSF-S).

 TOTAL NUMBER OF INTEGRALS =      10438
 NUMBER OF INTEGRALS/GROUP =      10438
 NUMBER OF INTEGRAL GROUPS =          1
 MAXIMUM RECORD SIZES ARE     500 FOR UNIT 11      80 FOR UNIT 12
                            30001 FOR UNIT 15   30001 FOR UNIT 16
 ...... END OF -DRT- GENERATION ...... 
 STEP CPU TIME =     0.49 TOTAL CPU TIME =        0.5 (    0.0 MIN)
 TOTAL WALL CLOCK TIME=        0.6 SECONDS, CPU UTILIZATION IS  96.36%

     --------------------------------------------
     PARTIAL TWO ELECTRON INTEGRAL TRANSFORMATION
     --------------------------------------------

 NUMBER OF CORE MOLECULAR ORBITALS     =    0
 NUMBER OF OCCUPIED MOLECULAR ORBITALS =   26
 TOTAL NUMBER OF MOLECULAR ORBITALS    =   26
 TOTAL NUMBER OF ATOMIC ORBITALS       =   26
 THRESHOLD FOR KEEPING TRANSFORMED 2E- INTEGRALS = 1.000E-09
 AO INTEGRALS WILL BE READ IN FROM DISK...
 TRANSFORMATION VECTORS

             1           2           3           4           5

    1   -0.0286936  -0.0208459   0.0000000   0.0000000  -0.0189110
    2   -0.1107727   0.0457181   0.0000000   0.0000000   0.0450172
    3   -0.0148216  -0.4740144   0.0000000   0.0000000  -0.4179673
    4   -0.4517138   1.6546239   0.0000000   0.0000000   0.7451429
    5    0.0000000   0.0000000   0.0000000   0.0779852   0.0000000
    6    0.0000000   0.0000000   0.0779852   0.0000000   0.0000000
    7   -0.0120425   0.0159539   0.0000000   0.0000000  -0.0815676
    8    0.0000000   0.0000000   0.0000000  -0.2331866   0.0000000
    9    0.0000000   0.0000000  -0.2331866   0.0000000   0.0000000
   10   -0.0220159  -0.0872682   0.0000000   0.0000000   0.3222022
   11    0.0000000   0.0000000   0.0000000   0.6624390   0.0000000
   12    0.0000000   0.0000000   0.6624390   0.0000000   0.0000000
   13    0.0377579   1.1072163   0.0000000   0.0000000  -1.4060206
   14   -0.0286936   0.0208459   0.0000000   0.0000000  -0.0189110
   15   -0.1107727  -0.0457181   0.0000000   0.0000000   0.0450172
   16   -0.0148216   0.4740144   0.0000000   0.0000000  -0.4179673
   17   -0.4517138  -1.6546239   0.0000000   0.0000000   0.7451429
   18    0.0000000   0.0000000   0.0000000   0.0779852   0.0000000
   19    0.0000000   0.0000000   0.0779852   0.0000000   0.0000000
   20    0.0120425   0.0159539   0.0000000   0.0000000   0.0815676
   21    0.0000000   0.0000000   0.0000000  -0.2331866   0.0000000
   22    0.0000000   0.0000000  -0.2331866   0.0000000   0.0000000
   23    0.0220159  -0.0872682   0.0000000   0.0000000  -0.3222022
   24    0.0000000   0.0000000   0.0000000   0.6624390   0.0000000
   25    0.0000000   0.0000000   0.6624390   0.0000000   0.0000000
   26   -0.0377579   1.1072163   0.0000000   0.0000000   1.4060206

             6           7           8           9          10

    1    0.0000000   0.0000000  -0.0088147  -0.0668919   0.0000000
    2    0.0000000   0.0000000  -0.2566078   0.2820903   0.0000000
    3    0.0000000   0.0000000   0.8894765  -1.5832725   0.0000000
    4    0.0000000   0.0000000  -5.7872533   1.0855026   0.0000000
    5   -0.0884657   0.0000000   0.0000000   0.0000000   0.0000000
    6    0.0000000  -0.0884657   0.0000000   0.0000000   0.1834633
    7    0.0000000   0.0000000   0.0388137   0.0435491   0.0000000
    8    0.4397122   0.0000000   0.0000000   0.0000000   0.0000000
    9    0.0000000   0.4397122   0.0000000   0.0000000  -1.0974897
   10    0.0000000   0.0000000  -0.0473855  -0.1614440   0.0000000
   11   -1.9999879   0.0000000   0.0000000   0.0000000   0.0000000
   12    0.0000000  -1.9999879   0.0000000   0.0000000   0.6598943
   13    0.0000000   0.0000000  -1.8988040   0.6498241   0.0000000
   14    0.0000000   0.0000000   0.0088147  -0.0668919   0.0000000
   15    0.0000000   0.0000000   0.2566078   0.2820903   0.0000000
   16    0.0000000   0.0000000  -0.8894765  -1.5832725   0.0000000
   17    0.0000000   0.0000000   5.7872533   1.0855026   0.0000000
   18    0.0884657   0.0000000   0.0000000   0.0000000   0.0000000
   19    0.0000000   0.0884657   0.0000000   0.0000000   0.1834633
   20    0.0000000   0.0000000   0.0388137  -0.0435491   0.0000000
   21   -0.4397122   0.0000000   0.0000000   0.0000000   0.0000000
   22    0.0000000  -0.4397122   0.0000000   0.0000000  -1.0974897
   23    0.0000000   0.0000000  -0.0473855   0.1614440   0.0000000
   24    1.9999879   0.0000000   0.0000000   0.0000000   0.0000000
   25    0.0000000   1.9999879   0.0000000   0.0000000   0.6598943
   26    0.0000000   0.0000000  -1.8988040  -0.6498241   0.0000000

            11          12          13          14          15

    1    0.0000000  -0.0485229  -0.0158333   0.0000000   0.0000000
    2    0.0000000   0.1804205   0.1324491   0.0000000   0.0000000
    3    0.0000000  -1.4624133  -0.9060085   0.0000000   0.0000000
    4    0.0000000   9.9833241   0.6674247   0.0000000   0.0000000
    5    0.1834633   0.0000000   0.0000000   0.0000000   0.2365779
    6    0.0000000   0.0000000   0.0000000   0.2365779   0.0000000
    7    0.0000000  -0.2565973  -0.1968641   0.0000000   0.0000000
    8   -1.0974897   0.0000000   0.0000000   0.0000000  -1.8712898
    9    0.0000000   0.0000000   0.0000000  -1.8712898   0.0000000
   10    0.0000000   2.6245769   1.3851891   0.0000000   0.0000000
   11    0.6598943   0.0000000   0.0000000   0.0000000   1.5018536
   12    0.0000000   0.0000000   0.0000000   1.5018536   0.0000000
   13    0.0000000   1.6818209  -1.0366002   0.0000000   0.0000000
   14    0.0000000   0.0485229  -0.0158333   0.0000000   0.0000000
   15    0.0000000  -0.1804205   0.1324491   0.0000000   0.0000000
   16    0.0000000   1.4624133  -0.9060085   0.0000000   0.0000000
   17    0.0000000  -9.9833241   0.6674247   0.0000000   0.0000000
   18    0.1834633   0.0000000   0.0000000   0.0000000  -0.2365779
   19    0.0000000   0.0000000   0.0000000  -0.2365779   0.0000000
   20    0.0000000  -0.2565973   0.1968641   0.0000000   0.0000000
   21   -1.0974897   0.0000000   0.0000000   0.0000000   1.8712898
   22    0.0000000   0.0000000   0.0000000   1.8712898   0.0000000
   23    0.0000000   2.6245769  -1.3851891   0.0000000   0.0000000
   24    0.6598943   0.0000000   0.0000000   0.0000000  -1.5018536
   25    0.0000000   0.0000000   0.0000000  -1.5018536   0.0000000
   26    0.0000000   1.6818209   1.0366002   0.0000000   0.0000000

            16          17          18          19          20

    1    0.0742167   0.0494634   0.0000000   0.0000000  -0.0425255
    2   -0.3398124  -1.3893082   0.0000000   0.0000000   1.3932748
    3    3.2840127   1.6652197   0.0000000   0.0000000  -1.8728635
    4   -0.1904884  -0.5578739   0.0000000   0.0000000   0.7772503
    5    0.0000000   0.0000000  -1.2338782   0.0000000   0.0000000
    6    0.0000000   0.0000000   0.0000000  -1.2338782   0.0000000
    7   -0.2025129  -0.7755647   0.0000000   0.0000000  -0.7988459
    8    0.0000000   0.0000000   1.2038206   0.0000000   0.0000000
    9    0.0000000   0.0000000   0.0000000   1.2038206   0.0000000
   10    2.8677846   0.9890469   0.0000000   0.0000000   0.9494465
   11    0.0000000   0.0000000  -0.4251500   0.0000000   0.0000000
   12    0.0000000   0.0000000   0.0000000  -0.4251500   0.0000000
   13   -0.7357807  -0.6247705   0.0000000   0.0000000  -0.3983633
   14   -0.0742167   0.0494634   0.0000000   0.0000000  -0.0425255
   15    0.3398124  -1.3893082   0.0000000   0.0000000   1.3932748
   16   -3.2840127   1.6652197   0.0000000   0.0000000  -1.8728635
   17    0.1904884  -0.5578739   0.0000000   0.0000000   0.7772503
   18    0.0000000   0.0000000  -1.2338782   0.0000000   0.0000000
   19    0.0000000   0.0000000   0.0000000  -1.2338782   0.0000000
   20   -0.2025129   0.7755647   0.0000000   0.0000000   0.7988459
   21    0.0000000   0.0000000   1.2038206   0.0000000   0.0000000
   22    0.0000000   0.0000000   0.0000000   1.2038206   0.0000000
   23    2.8677846  -0.9890469   0.0000000   0.0000000  -0.9494465
   24    0.0000000   0.0000000  -0.4251500   0.0000000   0.0000000
   25    0.0000000   0.0000000   0.0000000  -0.4251500   0.0000000
   26   -0.7357807   0.6247705   0.0000000   0.0000000   0.3983633

            21          22          23          24          25

    1    0.0000000   0.0000000  -0.0423236  -0.0151416  -1.3616066
    2    0.0000000   0.0000000   2.2702142  -0.1112984   2.1559714
    3    0.0000000   0.0000000  -5.2424126  -0.3868612  -1.6274108
    4    0.0000000   0.0000000   5.5900184   3.3403963   0.5306413
    5    0.0000000   1.3809493   0.0000000   0.0000000   0.0000000
    6    1.3809493   0.0000000   0.0000000   0.0000000   0.0000000
    7    0.0000000   0.0000000  -0.3872953  -1.9103154  -0.0762256
    8    0.0000000  -1.7015843   0.0000000   0.0000000   0.0000000
    9   -1.7015843   0.0000000   0.0000000   0.0000000   0.0000000
   10    0.0000000   0.0000000  -0.3322848   2.2102601   0.0783418
   11    0.0000000   0.8946408   0.0000000   0.0000000   0.0000000
   12    0.8946408   0.0000000   0.0000000   0.0000000   0.0000000
   13    0.0000000   0.0000000   1.1741841   0.2423303   0.0259685
   14    0.0000000   0.0000000   0.0423236   0.0151416  -1.3616066
   15    0.0000000   0.0000000  -2.2702142   0.1112984   2.1559714
   16    0.0000000   0.0000000   5.2424126   0.3868612  -1.6274108
   17    0.0000000   0.0000000  -5.5900184  -3.3403963   0.5306413
   18    0.0000000  -1.3809493   0.0000000   0.0000000   0.0000000
   19   -1.3809493   0.0000000   0.0000000   0.0000000   0.0000000
   20    0.0000000   0.0000000  -0.3872953  -1.9103154   0.0762256
   21    0.0000000   1.7015843   0.0000000   0.0000000   0.0000000
   22    1.7015843   0.0000000   0.0000000   0.0000000   0.0000000
   23    0.0000000   0.0000000  -0.3322848   2.2102601  -0.0783418
   24    0.0000000  -0.8946408   0.0000000   0.0000000   0.0000000
   25   -0.8946408   0.0000000   0.0000000   0.0000000   0.0000000
   26    0.0000000   0.0000000   1.1741841   0.2423303  -0.0259685

            26

    1    1.4815223
    2   -2.7492317
    3    3.3367288
    4   -2.6272143
    5    0.0000000
    6    0.0000000
    7   -0.1262476
    8    0.0000000
    9    0.0000000
   10    0.5069487
   11    0.0000000
   12    0.0000000
   13   -0.6032924
   14   -1.4815223
   15    2.7492317
   16   -3.3367288
   17    2.6272143
   18    0.0000000
   19    0.0000000
   20   -0.1262476
   21    0.0000000
   22    0.0000000
   23    0.5069487
   24    0.0000000
   25    0.0000000
   26   -0.6032924
 H = T + V-NE INTEGRALS, IN MO BASIS,
 THIS INCLUDES ANY FROZEN CORE 2E- TERMS!

             1           2           3           4           5

    1   -1.2586296
    2    0.0000000  -0.5019642
    3    0.0000000   0.0000000  -0.3841653
    4    0.0000000   0.0000000   0.0000000  -0.3841653
    5   -0.0860972   0.0000000   0.0000000   0.0000000  -0.1422192
    6    0.0000000   0.0000000   0.0000000   0.0000000   0.0000000
    7    0.0000000   0.0000000   0.0000000   0.0000000   0.0000000
    8    0.0000000  -0.2185757   0.0000000   0.0000000   0.0000000
    9   -0.1376024   0.0000000   0.0000000   0.0000000  -0.0780960
   10    0.0000000   0.0000000   0.1818968   0.0000000   0.0000000
   11    0.0000000   0.0000000   0.0000000   0.1818968   0.0000000
   12    0.0000000  -0.0555888   0.0000000   0.0000000   0.0000000
   13    0.0373192   0.0000000   0.0000000   0.0000000   0.1550184
   14    0.0000000   0.0000000   0.0000000   0.0000000   0.0000000
   15    0.0000000   0.0000000   0.0000000   0.0000000   0.0000000
   16    0.0000000   0.0284385   0.0000000   0.0000000   0.0000000
   17   -0.0515698   0.0000000   0.0000000   0.0000000  -0.0394841
   18    0.0000000   0.0000000   0.0000000   0.0006816   0.0000000
   19    0.0000000   0.0000000   0.0006816   0.0000000   0.0000000
   20    0.0022602   0.0000000   0.0000000   0.0000000   0.0109538
   21    0.0000000   0.0000000   0.0000000   0.0000000   0.0000000
   22    0.0000000   0.0000000   0.0000000   0.0000000   0.0000000
   23    0.0000000   0.0189025   0.0000000   0.0000000   0.0000000
   24    0.0000000  -0.0102573   0.0000000   0.0000000   0.0000000
   25   -0.0063190   0.0000000   0.0000000   0.0000000   0.0095619
   26    0.0000000  -0.0041138   0.0000000   0.0000000   0.0000000

             6           7           8           9          10

    6   -0.0489015
    7    0.0000000  -0.0489015
    8    0.0000000   0.0000000  -0.0581446
    9    0.0000000   0.0000000   0.0000000   0.1129838
   10    0.0000000   0.0000000   0.0000000   0.0000000   0.4539690
   11    0.0000000   0.0000000   0.0000000   0.0000000   0.0000000
   12    0.0000000   0.0000000  -0.1530995   0.0000000   0.0000000
   13    0.0000000   0.0000000   0.0000000  -0.0032361   0.0000000
   14    0.0000000  -0.1425145   0.0000000   0.0000000   0.0000000
   15   -0.1425145   0.0000000   0.0000000   0.0000000   0.0000000
   16    0.0000000   0.0000000   0.2043703   0.0000000   0.0000000
   17    0.0000000   0.0000000   0.0000000  -0.2051907   0.0000000
   18    0.0000000   0.0000000   0.0000000   0.0000000   0.0000000
   19    0.0000000   0.0000000   0.0000000   0.0000000  -0.1959589
   20    0.0000000   0.0000000   0.0000000   0.0345521   0.0000000
   21    0.0000000  -0.0064960   0.0000000   0.0000000   0.0000000
   22   -0.0064960   0.0000000   0.0000000   0.0000000   0.0000000
   23    0.0000000   0.0000000   0.0215675   0.0000000   0.0000000
   24    0.0000000   0.0000000  -0.0118236   0.0000000   0.0000000
   25    0.0000000   0.0000000   0.0000000   0.0284569   0.0000000
   26    0.0000000   0.0000000   0.0230376   0.0000000   0.0000000

            11          12          13          14          15

   11    0.4539690
   12    0.0000000   0.9141531
   13    0.0000000   0.0000000   0.8677176
   14    0.0000000   0.0000000   0.0000000   0.9935500
   15    0.0000000   0.0000000   0.0000000   0.0000000   0.9935500
   16    0.0000000   0.0773089   0.0000000   0.0000000   0.0000000
   17    0.0000000   0.0000000   0.0751438   0.0000000   0.0000000
   18   -0.1959589   0.0000000   0.0000000   0.0000000   0.0000000
   19    0.0000000   0.0000000   0.0000000   0.0000000   0.0000000
   20    0.0000000   0.0000000   0.1882716   0.0000000   0.0000000
[...]
   11  H  1  X    0.000000  -0.000000   0.129342   0.000000   0.000000
   12  H  1  Y    0.000000  -0.000000  -0.000000   0.129342  -0.345091
   13  H  1  Z    0.092366  -0.136176  -0.000000   0.000000   0.000000
   14  H  2  S   -0.057197   0.088850  -0.000000   0.000000   0.000000
   15  H  2  S   -0.487065   0.621159  -0.000000   0.000000   0.000000
   16  H  2  S   -0.272781   0.315984  -0.000000   0.000000   0.000000
   17  H  2  S    0.349257  -0.972051  -0.000000   0.000000   0.000000
   18  H  2  X    0.000000  -0.000000  -0.430537   0.000000   0.000000
   19  H  2  Y    0.000000  -0.000000  -0.000000  -0.430537   0.760303
   20  H  2  Z   -0.152941  -0.243534  -0.000000   0.000000   0.000000
   21  H  2  X    0.000000  -0.000000  -0.549941   0.000000   0.000000
   22  H  2  Y    0.000000  -0.000000  -0.000000  -0.549941  -0.255901
   23  H  2  Z   -0.520607  -0.021038  -0.000000   0.000000   0.000000
   24  H  2  X    0.000000  -0.000000  -0.129342   0.000000   0.000000
   25  H  2  Y    0.000000  -0.000000  -0.000000  -0.129342  -0.345091
   26  H  2  Z   -0.092366  -0.136176  -0.000000   0.000000   0.000000

                     11         12         13         14         15
                    0.0001     0.0000     0.0000     0.0000     0.0000
                     B3U        AG         B1U        AG         B2G 
    1  H  1  S    0.000000   0.060865  -0.089421  -0.250473  -0.000000
    2  H  1  S    0.000000  -0.717237  -0.639472  -1.208096  -0.000000
    3  H  1  S    0.000000   1.047299   2.584176   2.318540  -0.000000
    4  H  1  S    0.000000  -0.625013   1.887520  -1.001717  -0.000000
    5  H  1  X    0.760303  -0.000000   0.000000  -0.000000  -1.170517
    6  H  1  Y    0.000000  -0.000000   0.000000  -0.000000  -0.000000
    7  H  1  Z    0.000000  -0.852019   1.026485   0.228519  -0.000000
    8  H  1  X   -0.255901  -0.000000   0.000000  -0.000000   1.525394
    9  H  1  Y    0.000000  -0.000000   0.000000  -0.000000  -0.000000
   10  H  1  Z    0.000000   0.844758   1.544979  -0.356724  -0.000000
   11  H  1  X   -0.345091  -0.000000   0.000000  -0.000000  -0.001818
   12  H  1  Y    0.000000  -0.000000   0.000000  -0.000000  -0.000000
   13  H  1  Z    0.000000   0.084355   0.149962  -0.383079  -0.000000
   14  H  2  S    0.000000   0.060865   0.089421  -0.250473  -0.000000
   15  H  2  S    0.000000  -0.717237   0.639472  -1.208096  -0.000000
   16  H  2  S    0.000000   1.047299  -2.584176   2.318540  -0.000000
   17  H  2  S    0.000000  -0.625013  -1.887520  -1.001717  -0.000000
   18  H  2  X    0.760303  -0.000000   0.000000  -0.000000   1.170517
   19  H  2  Y    0.000000  -0.000000   0.000000  -0.000000  -0.000000
   20  H  2  Z    0.000000   0.852019   1.026485  -0.228519  -0.000000
   21  H  2  X   -0.255901  -0.000000   0.000000  -0.000000  -1.525394
   22  H  2  Y    0.000000  -0.000000   0.000000  -0.000000  -0.000000
   23  H  2  Z    0.000000  -0.844758   1.544979   0.356724  -0.000000
   24  H  2  X   -0.345091  -0.000000   0.000000  -0.000000   0.001818
   25  H  2  Y    0.000000  -0.000000   0.000000  -0.000000  -0.000000
   26  H  2  Z    0.000000  -0.084355   0.149962   0.383079  -0.000000

                     16         17         18         19         20
                    0.0000     0.0000     0.0000     0.0000     0.0000
                     B3G        B1U        B2U        B3U        B1U 
    1  H  1  S   -0.000000  -0.169630  -0.000000  -0.000000   0.471771
    2  H  1  S   -0.000000  -1.047112  -0.000000  -0.000000  -0.130995
    3  H  1  S   -0.000000   2.679117  -0.000000  -0.000000  -0.762997
    4  H  1  S   -0.000000   0.883720  -0.000000  -0.000000   8.766451
    5  H  1  X   -0.000000   0.000000  -0.000000  -0.983173   0.000000
    6  H  1  Y   -1.170517   0.000000  -0.983173  -0.000000   0.000000
    7  H  1  Z   -0.000000  -0.760696  -0.000000  -0.000000  -1.422146
    8  H  1  X   -0.000000   0.000000  -0.000000   1.584858   0.000000
    9  H  1  Y    1.525394   0.000000   1.584858  -0.000000   0.000000
   10  H  1  Z   -0.000000   1.537729  -0.000000  -0.000000   3.751807
   11  H  1  X   -0.000000   0.000000  -0.000000  -0.960149   0.000000
   12  H  1  Y   -0.001818   0.000000  -0.960149  -0.000000   0.000000
   13  H  1  Z   -0.000000   0.425293  -0.000000  -0.000000   1.072999
   14  H  2  S   -0.000000   0.169630  -0.000000  -0.000000  -0.471771
   15  H  2  S   -0.000000   1.047112  -0.000000  -0.000000   0.130995
   16  H  2  S   -0.000000  -2.679117  -0.000000  -0.000000   0.762997
   17  H  2  S   -0.000000  -0.883720  -0.000000  -0.000000  -8.766451
   18  H  2  X   -0.000000   0.000000  -0.000000  -0.983173   0.000000
   19  H  2  Y    1.170517   0.000000  -0.983173  -0.000000   0.000000
   20  H  2  Z   -0.000000  -0.760696  -0.000000  -0.000000  -1.422146
   21  H  2  X   -0.000000   0.000000  -0.000000   1.584858   0.000000
   22  H  2  Y   -1.525394   0.000000   1.584858  -0.000000   0.000000
   23  H  2  Z   -0.000000   1.537729  -0.000000  -0.000000   3.751807
   24  H  2  X   -0.000000   0.000000  -0.000000  -0.960149   0.000000
   25  H  2  Y    0.001818   0.000000  -0.960149  -0.000000   0.000000
   26  H  2  Z   -0.000000   0.425293  -0.000000  -0.000000   1.072999

                     21         22         23         24         25
                    0.0000     0.0000     0.0000     0.0000     0.0000
                     AG         AG         B1U        B3G        B2G 
    1  H  1  S   -0.442904  -1.263035   0.955382  -0.000000  -0.000000
    2  H  1  S    0.684973   2.434049  -1.519293  -0.000000  -0.000000
    3  H  1  S   -0.194618  -2.283522   0.269981  -0.000000  -0.000000
    4  H  1  S   -0.369048   0.945702   1.765033  -0.000000  -0.000000
    5  H  1  X   -0.000000  -0.000000  -0.000000  -0.000000   0.644472
    6  H  1  Y   -0.000000  -0.000000  -0.000000   0.644472  -0.000000
    7  H  1  Z    0.566488  -0.364968   0.456940  -0.000000  -0.000000
    8  H  1  X   -0.000000  -0.000000  -0.000000  -0.000000  -1.990276
    9  H  1  Y   -0.000000  -0.000000  -0.000000  -1.990276  -0.000000
   10  H  1  Z   -1.520687   0.713556  -1.130062  -0.000000  -0.000000
   11  H  1  X   -0.000000  -0.000000  -0.000000  -0.000000   2.653143
   12  H  1  Y   -0.000000  -0.000000  -0.000000   2.653143  -0.000000
   13  H  1  Z    1.883236  -0.539557   1.231893  -0.000000  -0.000000
   14  H  2  S   -0.442904  -1.263035  -0.955382  -0.000000  -0.000000
   15  H  2  S    0.684973   2.434049   1.519293  -0.000000  -0.000000
   16  H  2  S   -0.194618  -2.283522  -0.269981  -0.000000  -0.000000
   17  H  2  S   -0.369048   0.945702  -1.765033  -0.000000  -0.000000
   18  H  2  X   -0.000000  -0.000000  -0.000000  -0.000000  -0.644472
   19  H  2  Y   -0.000000  -0.000000  -0.000000  -0.644472  -0.000000
   20  H  2  Z   -0.566488   0.364968   0.456940  -0.000000  -0.000000
   21  H  2  X   -0.000000  -0.000000  -0.000000  -0.000000   1.990276
   22  H  2  Y   -0.000000  -0.000000  -0.000000   1.990276  -0.000000
   23  H  2  Z    1.520687  -0.713556  -1.130062  -0.000000  -0.000000
   24  H  2  X   -0.000000  -0.000000  -0.000000  -0.000000  -2.653143
   25  H  2  Y   -0.000000  -0.000000  -0.000000  -2.653143  -0.000000
   26  H  2  Z   -1.883236   0.539557   1.231893  -0.000000  -0.000000

                     26
                    0.0000
                     B1U 
    1  H  1  S   -1.011500
    2  H  1  S    2.949850
    3  H  1  S   -6.155387
    4  H  1  S    9.986923
    5  H  1  X    0.000000
    6  H  1  Y    0.000000
    7  H  1  Z   -0.030286
    8  H  1  X    0.000000
    9  H  1  Y    0.000000
   10  H  1  Z   -0.519006
   11  H  1  X    0.000000
   12  H  1  Y    0.000000
   13  H  1  Z    2.666301
   14  H  2  S    1.011500
   15  H  2  S   -2.949850
   16  H  2  S    6.155387
   17  H  2  S   -9.986923
   18  H  2  X    0.000000
   19  H  2  Y    0.000000
   20  H  2  Z   -0.030286
   21  H  2  X    0.000000
   22  H  2  Y    0.000000
   23  H  2  Z   -0.519006
   24  H  2  X    0.000000
   25  H  2  Y    0.000000
   26  H  2  Z    2.666301
 ...... END OF DENSITY MATRIX CALCULATION ...... 
 STEP CPU TIME =     0.00 TOTAL CPU TIME =        0.6 (    0.0 MIN)
 TOTAL WALL CLOCK TIME=        1.3 SECONDS, CPU UTILIZATION IS  45.67%

     --------------------------------------------------------
     GUGA  CI PROPERTIES...FOR THE WAVEFUNCTION OF STATE    1
               USING THE EXPECTATION VALUE DENSITY
     --------------------------------------------------------

          -----------------
          ENERGY COMPONENTS
          -----------------

         WAVEFUNCTION NORMALIZATION =       1.0000000000

                ONE ELECTRON ENERGY =      -2.4845982894
                TWO ELECTRON ENERGY =       0.6150953347
           NUCLEAR REPULSION ENERGY =       0.7137154556
                                      ------------------
                       TOTAL ENERGY =      -1.1557874991

 ELECTRON-ELECTRON POTENTIAL ENERGY =       0.6150953347
  NUCLEUS-ELECTRON POTENTIAL ENERGY =      -3.7403174340
   NUCLEUS-NUCLEUS POTENTIAL ENERGY =       0.7137154556
                                      ------------------
             TOTAL POTENTIAL ENERGY =      -2.4115066436
               TOTAL KINETIC ENERGY =       1.2557191445
                 VIRIAL RATIO (V/T) =       1.9204187928
 MEMORY ASSIGNEMENT
 I10, I20, I21, I30, I31, I40, I41, I60 =
****************************************************************
 LAST = ********

          ---------------------------------------
          MULLIKEN AND LOWDIN POPULATION ANALYSES
          ---------------------------------------
 MEMORY ASSIGNMENT
 I10, I30, I40, I50, I60, I70, I41, I51, I61, I71 =
********************************************************************************
 LAST = ********

          ----- MULLIKEN ATOMIC OVERLAP POPULATIONS -----
          (OFF-DIAGONAL ELEMENTS NEED TO BE MULTIPLIED BY 2)

                      1          2          3          4          5

    1  H  1  S    0.001733
    2  H  1  S    0.005066   0.025107
    3  H  1  S    0.000926   0.005722   0.008519
    4  H  1  S    0.007415   0.058265   0.018754   0.399760
    5  H  1  X    0.000000   0.000000   0.000000   0.000000   0.000164
    6  H  1  Y    0.000000   0.000000   0.000000   0.000000   0.000000
    7  H  1  Z   -0.000000   0.000000   0.000000   0.000000   0.000000
    8  H  1  X    0.000000   0.000000   0.000000   0.000000   0.000161
    9  H  1  Y    0.000000   0.000000   0.000000   0.000000   0.000000
   10  H  1  Z   -0.000000  -0.000000   0.000000   0.000000   0.000000
   11  H  1  X    0.000000   0.000000   0.000000   0.000000   0.000025
   12  H  1  Y    0.000000   0.000000   0.000000   0.000000   0.000000
   13  H  1  Z    0.000000  -0.000000  -0.000000   0.000000   0.000000
   14  H  2  S    0.000008   0.000339   0.000138   0.004047   0.000000
   15  H  2  S    0.000339   0.004110   0.001187   0.033891   0.000000
   16  H  2  S    0.000138   0.001187  -0.000467   0.006600   0.000000
   17  H  2  S    0.004047   0.033891   0.006600   0.287658   0.000000
   18  H  2  X    0.000000   0.000000   0.000000   0.000000   0.000020
   19  H  2  Y    0.000000   0.000000   0.000000   0.000000   0.000000
   20  H  2  Z    0.000144   0.001034   0.000448   0.002333   0.000000
   21  H  2  X    0.000000   0.000000   0.000000   0.000000   0.000062
   22  H  2  Y    0.000000   0.000000   0.000000   0.000000   0.000000
   23  H  2  Z    0.000321   0.002223   0.000373   0.007812   0.000000
   24  H  2  X    0.000000   0.000000   0.000000   0.000000   0.000012
   25  H  2  Y    0.000000   0.000000   0.000000   0.000000   0.000000
   26  H  2  Z   -0.000401  -0.003173  -0.000393  -0.019689   0.000000

                      6          7          8          9         10

    6  H  1  Y    0.000164
    7  H  1  Z    0.000000   0.000495
    8  H  1  X    0.000000   0.000000   0.000664
    9  H  1  Y    0.000161   0.000000   0.000000   0.000664
   10  H  1  Z    0.000000   0.000341   0.000000   0.000000   0.000947
   11  H  1  X    0.000000   0.000000   0.000152   0.000000   0.000000
   12  H  1  Y    0.000025   0.000000   0.000000   0.000152   0.000000
   13  H  1  Z    0.000000  -0.000286   0.000000   0.000000  -0.001114
   14  H  2  S    0.000000   0.000144   0.000000   0.000000   0.000321
   15  H  2  S    0.000000   0.001034   0.000000   0.000000   0.002223
   16  H  2  S    0.000000   0.000448   0.000000   0.000000   0.000373
   17  H  2  S    0.000000   0.002333   0.000000   0.000000   0.007812
   18  H  2  X    0.000000   0.000000   0.000062   0.000000   0.000000
   19  H  2  Y    0.000020   0.000000   0.000000   0.000062   0.000000
   20  H  2  Z    0.000000   0.000181   0.000000   0.000000   0.000081
   21  H  2  X    0.000000   0.000000   0.000306   0.000000   0.000000
   22  H  2  Y    0.000062   0.000000   0.000000   0.000306   0.000000
   23  H  2  Z    0.000000   0.000081   0.000000   0.000000   0.000025
   24  H  2  X    0.000000   0.000000   0.000102   0.000000   0.000000
   25  H  2  Y    0.000012   0.000000   0.000000   0.000102   0.000000
   26  H  2  Z    0.000000   0.000055   0.000000   0.000000   0.000324

                     11         12         13         14         15

   11  H  1  X    0.000079
   12  H  1  Y    0.000000   0.000079
   13  H  1  Z    0.000000   0.000000   0.003115
   14  H  2  S    0.000000   0.000000  -0.000401   0.001733
   15  H  2  S    0.000000   0.000000  -0.003173   0.005066   0.025107
   16  H  2  S    0.000000   0.000000  -0.000393   0.000926   0.005722
   17  H  2  S    0.000000   0.000000  -0.019689   0.007415   0.058265
   18  H  2  X    0.000012   0.000000   0.000000   0.000000   0.000000
   19  H  2  Y    0.000000   0.000012   0.000000   0.000000   0.000000
   20  H  2  Z    0.000000   0.000000   0.000055  -0.000000  -0.000000
   21  H  2  X    0.000102   0.000000   0.000000   0.000000   0.000000
   22  H  2  Y    0.000000   0.000102   0.000000   0.000000   0.000000
   23  H  2  Z    0.000000   0.000000   0.000324  -0.000000  -0.000000
   24  H  2  X    0.000056   0.000000   0.000000   0.000000   0.000000
   25  H  2  Y    0.000000   0.000056   0.000000   0.000000   0.000000
   26  H  2  Z    0.000000   0.000000  -0.001398   0.000000   0.000000

                     16         17         18         19         20

   16  H  2  S    0.008519
   17  H  2  S    0.018754   0.399760
   18  H  2  X    0.000000   0.000000   0.000164
   19  H  2  Y    0.000000   0.000000   0.000000   0.000164
   20  H  2  Z   -0.000000  -0.000000   0.000000   0.000000   0.000495
   21  H  2  X    0.000000   0.000000   0.000161   0.000000   0.000000
   22  H  2  Y    0.000000   0.000000   0.000000   0.000161   0.000000
   23  H  2  Z    0.000000  -0.000000   0.000000   0.000000   0.000341
   24  H  2  X    0.000000   0.000000   0.000025   0.000000   0.000000
   25  H  2  Y    0.000000   0.000000   0.000000   0.000025   0.000000
   26  H  2  Z   -0.000000   0.000000   0.000000   0.000000  -0.000286

                     21         22         23         24         25

   21  H  2  X    0.000664
   22  H  2  Y    0.000000   0.000664
   23  H  2  Z    0.000000   0.000000   0.000947
   24  H  2  X    0.000152   0.000000   0.000000   0.000079
   25  H  2  Y    0.000000   0.000152   0.000000   0.000000   0.000079
   26  H  2  Z    0.000000   0.000000  -0.001114   0.000000   0.000000

                     26

   26  H  2  Z    0.003115

               ----- POPULATIONS IN EACH AO -----
                             MULLIKEN      LOWDIN
              1  H  1  S      0.01974     0.02927
              2  H  1  S      0.13377     0.11164
              3  H  1  S      0.04181     0.26222
              4  H  1  S      0.80685     0.54568
              5  H  1  X      0.00045     0.00057
              6  H  1  Y      0.00045     0.00057
              7  H  1  Z      0.00483     0.00625
              8  H  1  X      0.00145     0.00112
              9  H  1  Y      0.00145     0.00112
             10  H  1  Z      0.01133     0.01581
             11  H  1  X      0.00043     0.00063
             12  H  1  Y      0.00043     0.00063
             13  H  1  Z     -0.02296     0.02449
             14  H  2  S      0.01974     0.02927
             15  H  2  S      0.13377     0.11164
             16  H  2  S      0.04181     0.26222
             17  H  2  S      0.80685     0.54568
             18  H  2  X      0.00045     0.00057
             19  H  2  Y      0.00045     0.00057
             20  H  2  Z      0.00483     0.00625
             21  H  2  X      0.00145     0.00112
             22  H  2  Y      0.00145     0.00112
             23  H  2  Z      0.01133     0.01581
             24  H  2  X      0.00043     0.00063
             25  H  2  Y      0.00043     0.00063
             26  H  2  Z     -0.02296     0.02449

          ----- MULLIKEN ATOMIC OVERLAP POPULATIONS -----
          (OFF-DIAGONAL ELEMENTS NEED TO BE MULTIPLIED BY 2)

             1           2

    1    0.6330204
    2    0.3669796   0.6330204

          TOTAL MULLIKEN AND LOWDIN ATOMIC POPULATIONS
       ATOM         MULL.POP.                    LOW.POP.

          TOTAL MULLIKEN AND LOWDIN ATOMIC POPULATIONS
       ATOM         MULL.POP.    CHARGE          LOW.POP.     CHARGE
    1 H             1.000000                     1.000000
    1 H             1.000000    0.000000         1.000000   -0.000000
    2 H             1.000000                     1.000000
    2 H             1.000000   -0.000000         1.000000   -0.000000

          ---------------------
          ELECTROSTATIC MOMENTS
          ---------------------

 POINT   1           X           Y           Z (BOHR)    CHARGE
                 0.000000    0.000000    0.000000       -0.00 (A.U.)
         DX          DY          DZ         /D/  (DEBYE)
     0.000000    0.000000    0.000000    0.000000
 ...... END OF PROPERTY EVALUATION ......
 STEP CPU TIME =     0.01 TOTAL CPU TIME =        0.6 (    0.0 MIN)
 TOTAL WALL CLOCK TIME=        1.3 SECONDS, CPU UTILIZATION IS  46.09%
               580000  WORDS OF DYNAMIC MEMORY USED
 EXECUTION OF GAMESS TERMINATED NORMALLY Mon May 20 11:39:26 2013
 DDI: 263624 bytes (0.3 MB / 0 MWords) used by master data server.

 ----------------------------------------
 CPU timing information for all processes
 ========================================
 0: 0.220 + 0.468 = 0.688
 ----------------------------------------
 ddikick.x: exited gracefully.
unset echo
----- accounting info -----
Files used on the master node doreen were:
-rw-rw-r-- 1 lmentel lmentel   24135 maj 20 11:39 /home/lmentel/scratch/h2_atmol.dat
-rw-r--r-- 1 lmentel lmentel    1133 maj 20 11:39 /home/lmentel/scratch/h2_atmol.F05
-rw-rw-r-- 1 lmentel lmentel  180016 maj 20 11:39 /home/lmentel/scratch/h2_atmol.F08
-rw-rw-r-- 1 lmentel lmentel  182832 maj 20 11:39 /home/lmentel/scratch/h2_atmol.F09
-rw-rw-r-- 1 lmentel lmentel 1243360 maj 20 11:39 /home/lmentel/scratch/h2_atmol.F10
-rw-rw-r-- 1 lmentel lmentel  294312 maj 20 11:39 /home/lmentel/scratch/h2_atmol.F11
-rw-rw-r-- 1 lmentel lmentel     832 maj 20 11:39 /home/lmentel/scratch/h2_atmol.F12
-rw-rw-r-- 1 lmentel lmentel  400008 maj 20 11:39 /home/lmentel/scratch/h2_atmol.F14
-rw-rw-r-- 1 lmentel lmentel  160864 maj 20 11:39 /home/lmentel/scratch/h2_atmol.F15
-rw-rw-r-- 1 lmentel lmentel  200216 maj 20 11:39 /home/lmentel/scratch/h2_atmol.F16
pwd
cp /home/lmentel/scratch/h2_atmol.F08 /home/lmentel/work/mercurial_repo/Vconstr/test/h2_atmol/h2_atmol.F08
pwd
cp /home/lmentel/scratch/h2_atmol.F09 /home/lmentel/work/mercurial_repo/Vconstr/test/h2_atmol/h2_atmol.F09
pwd
cp /home/lmentel/scratch/h2_atmol.F10 /home/lmentel/work/mercurial_repo/Vconstr/test/h2_atmol/h2_atmol.F10
pwd
cp /home/lmentel/scratch/basis.info /home/lmentel/work/mercurial_repo/Vconstr/test/h2_atmol/h2_atmol.basinfo
unset echo
ls: No match.
ls: No match.
ls: No match.
pon, 20 maj 2013, 11:39:30 KST
0.0u 0.0s 0:04.65 0.2% 0+0k 1168+3176io 13pf+0w
